
         
 *******************************************************************************
 *                                                                             *
 *                               CRYSTAL23                                     *
 *                      public : 1.0.1 - October 2022                          *
 *                       HTTP://WWW.CRYSTAL.UNITO.IT                           *
 *                                                                             *
 *                              MAIN AUTHORS                                   *
 *                                                                             *
 *  R. DOVESI(1,11), V.R. SAUNDERS(2), C. ROETTI(1,11), R. ORLANDO(1,11),      *
 *  C.M. ZICOVICH-WILSON(1,3), F. PASCALE(4), B. CIVALLERI(1,11),              *
 *  K. DOLL(5), N.M. HARRISON(6), I.J. BUSH(7), Ph. D'ARCO(8),                 *
 *  M. LLUNELL(9), M. CAUSA'(10), Y. NOEL(8), L. MASCHIO(1,11), A. ERBA(1,11)  *
 *  M. RE'RAT(14), S. CASASSA(1,11), B.G. SEARLE(2), J.K. DESMARAIS(1)         *
 *                                                                             *
 *        CONTRIBUTIONS TO THE CODE HAVE ALSO BEEN GIVEN BY                    *
 *                                                                             *
 *  M. FERRABONE(1,11), M. DE LA PIERRE(1,11), M. FERRERO(1,11),               *
 *  J. BAIMA(1,11), E. ALBANESE(1,11), M.F. PEINTINGER(12), R. BAST(13),       *
 *  B. KIRTMAN(15), V. LACIVITA(1,11), R. DEMICHELIS(1,16)                     *
 *  G. BRANDEBURG(17), S. SALUSTRO(1,11), G. SANSONE(1,11)                     *
 *  M.T. RUGGIERO(18), L.E. DAGA(1), L. DONA'(1), A. COSSARD(1)                *
 *                                                                             *
 * (1) THEORETICAL CHEMISTRY GROUP - UNIVERSITA' DI TORINO - TORINO (ITALY)    *
 * (2) SCIENTIFIC COMPUTING DEPARTMENT - STFC DARESBURY (UK)                   *
 * (3) UNIVERSIDAD AUTONOMA DEL ESTADO DE MORELOS - CUERNAVACA (MEXICO)        *
 * (4) UNIVERSITE' DE LORRAINE - NANCY (FRANCE)                                *
 * (5) UNIVERSITAET STUTTGART- STUTTGART (GERMANY)                             *
 * (6) IMPERIAL COLLEGE - LONDON (UK)                                          *
 * (7) SCIENTIFIC COMPUTING DEPARTMENT - STFC RAL (UK)                         *
 * (8) UPMC - SORBONNE UNIVERSITES - PARIS (FRANCE)                            *
 * (9) UNIVERSIDAD DE BARCELONA - BARCELONA (SPAIN)                            *
 *(10) UNIVERSITA' DI NAPOLI "FEDERICO II" - NAPOLI (ITALY)                    *
 *(11) NIS - NANOSTRUCTURED INTERFACES AND SURFACES - TORINO (ITALY)           *
 *(12) MPI FUER CHEMISCHE ENERGIEKONVERSION - MUELHEIM AN DER RUHR (GERMANY)   *
 *(13) UNIVERSITY OF TROMSO - TROMSO (NORWAY)                                  *
 *(14) UNIVERSITE' DE PAU ET DES PAYS DE L'ADOUR - PAU (FRANCE)                *
 *(15) UNIVERSITY OF CALIFORNIA SANTA BARBARA - SANTA BARBARA (USA)            *
 *(16) CURTIN UNIVERSITY - PERTH (AUSTRALIA)                                   *
 *(17) UNIVERSITY COLLEGE LONDON - LONDON (UK)                                 *
 *(18) UNIVERSITY OF VERMONT - BURLINGTON (USA)                                *
 *                                                                             *
 *******************************************************************************
 EEEEEEEEEE STARTING  DATE 31 07 2025 TIME 15:14:24.8
 Check                                                                           
 filename=fort.34                        0           0

 GEOMETRY INPUT FROM EXTERNAL FILE (FORTRAN UNIT 34)
 3D - CRYSTAL 

 *******************************************************************************
 LATTICE PARAMETERS  (ANGSTROMS AND DEGREES) - PRIMITIVE CELL
       A          B          C        ALPHA      BETA     GAMMA        VOLUME
   11.05235    3.74082   11.05705    90.00000 120.03245  90.00000    395.775444
 INFORMATION **** CHKGRP **** SPGR WITH NO INVERSION

 NUMBER OF IRREDUCIBLE ATOMS IN THE CELL:   18

 CARTESIAN COORDINATES (ANGSTROM) - IRREDUCIBLE ATOMS AND SYMMETRY RELATED

 AT.IRR.  AT  AT.N.          X                   Y                   Z
     1     1    12    1.358659168636E+00  2.085559504928E+00  7.169300468255E+00
     1     2    12    4.159807555224E+00  2.151508435480E-01  2.403214399971E+00
     3     3    12    4.161278723885E+00  2.151508435480E-01  2.405913641223E+00
     3     4    12   -4.161278723885E+00 -1.655257817832E+00 -2.405913641223E+00
     5     5    53    4.124878801642E+00  2.190171561060E+00  8.810270089389E+00
     5     6    53    1.393587922218E+00  3.197628996800E-01  7.622447788370E-01
     7     7    53    1.395059090879E+00  3.197628996800E-01  7.649440200890E-01
     7     8    53   -1.395059090879E+00 -1.550645761700E+00 -7.649440200890E-01
     9     9    53    4.123622119505E+00  3.191414795940E-01  5.620714532447E+00
     9    10    53    1.394844604355E+00 -1.551267181786E+00  3.951800335779E+00
    11    11    53    1.396315773016E+00  2.189550140974E+00  3.954499577030E+00
    11    12    53   -1.396315773016E+00  3.191414795940E-01 -3.954499577030E+00
    13    13     8    3.099837158271E+00  1.116699497436E+00  7.641471003232E+00
    13    14     8    2.418629565589E+00 -7.537091639440E-01  1.931043864994E+00
    15    15     8    2.420100734250E+00  2.987108158816E+00  1.933743106246E+00
    15    16     8   -2.420100734250E+00  1.116699497436E+00 -1.933743106246E+00
    17    17     8    1.002797621720E-01  1.102297614441E+00  8.469509930404E+00
    17    18     8    5.418186961688E+00 -7.681110469390E-01  1.103004937822E+00
    19    19     8    5.419658130349E+00  2.972706275821E+00  1.105704179073E+00
    19    20     8   -5.419658130349E+00  1.102297614441E+00 -1.105704179073E+00
    21    21     8    3.623946425720E+00  1.062473317765E+00  6.430498336300E-01
    21    22     8   -3.623946425720E+00 -8.079353436150E-01 -6.430498336300E-01
    23    23     8    1.895991466801E+00  2.932881979145E+00  8.932164275847E+00
    23    24     8    3.622475257059E+00  1.062473317765E+00  6.403505923790E-01
    25    25     8    5.076100555049E+00  2.947883793223E+00  6.789661704215E+00
    25    26     8    4.423661688110E-01  1.077475131843E+00  2.782853164011E+00
    27    27     8    4.438373374710E-01  1.077475131843E+00  2.785552405262E+00
    27    28     8   -4.438373374710E-01 -7.929335295370E-01 -2.785552405262E+00
    29    29     8    2.607485931852E+00  2.970597113993E+00  5.826665110747E+00
    29    30     8    2.910980792008E+00  1.100188452613E+00  3.745849757479E+00
    31    31     8    2.912451960669E+00  1.100188452613E+00  3.748548998730E+00
    31    32     8   -2.912451960669E+00 -7.702202087670E-01 -3.748548998730E+00
    33    33     8    4.655496205496E+00  3.007057122736E+00  4.150210651118E+00
    33    34     8    8.629705183640E-01  1.136648461356E+00  5.422304217108E+00
    35    35     8    8.644416870250E-01  1.136648461356E+00  5.425003458359E+00
    35    36     8   -8.644416870250E-01 -7.337602000240E-01 -5.425003458359E+00

 SPACE  GROUP  N.                     :    4
 NUMBER OF SYMMETRY OPERATORS         :    2
 *******************************************************************************
 LATTICE PARAMETERS (ANGSTROMS AND DEGREES) - BOHR = 0.5291772083 ANGSTROM
 PRIMITIVE CELL - CENTRING CODE 1/0 VOLUME=   395.775444 - DENSITY  6.273 g/cm^3
         A              B              C           ALPHA      BETA       GAMMA 
    11.05234996     3.74081732    11.05704812    90.000000 120.032453  90.000000
 *******************************************************************************
 ATOMS IN THE ASYMMETRIC UNIT   18 - ATOMS IN THE UNIT CELL:   36
     ATOM                 X/A                 Y/B                 Z/C    
 *******************************************************************************
      1 T  12 MG    4.979240064361E-01 -4.424856054213E-01 -2.510555377024E-01
      2 F  12 MG   -4.979240064361E-01  5.751439457869E-02  2.510555377024E-01
      3 F  12 MG   -4.976497115389E-01  5.751439457869E-02  2.513375159206E-01
      4 T  12 MG    4.976497115389E-01 -4.424856054213E-01 -2.513375159206E-01
      5 T  53 I    -1.659598451108E-01 -4.145205787691E-01 -7.962914037032E-02
      6 F  53 I     1.659598451108E-01  8.547942123089E-02  7.962914037032E-02
      7 F  53 I     1.662341400080E-01  8.547942123089E-02  7.991111858857E-02
      8 T  53 I    -1.662341400080E-01 -4.145205787691E-01 -7.991111858857E-02
      9 T  53 I    -3.329049575600E-01  8.531330243053E-02 -4.128271943522E-01
     10 F  53 I     3.329049575600E-01 -4.146866975695E-01  4.128271943522E-01
     11 F  53 I     3.331792524571E-01 -4.146866975695E-01  4.131091725704E-01
     12 T  53 I    -3.331792524571E-01  8.531330243053E-02 -4.131091725704E-01
     13 T   8 O    -3.198390894199E-01  2.985175166512E-01 -2.017288644500E-01
     14 F   8 O     3.198390894199E-01 -2.014824833488E-01  2.017288644500E-01
     15 F   8 O     3.201133843171E-01 -2.014824833488E-01  2.020108426682E-01
     16 T   8 O    -3.201133843171E-01  2.985175166512E-01 -2.020108426682E-01
     17 T   8 O     4.520754436897E-01  2.946675871432E-01 -1.152295698817E-01
     18 F   8 O    -4.520754436897E-01 -2.053324128568E-01  1.152295698817E-01
     19 F   8 O    -4.518011487926E-01 -2.053324128568E-01  1.155115480998E-01
     20 T   8 O     4.518011487926E-01  2.946675871432E-01 -1.155115480998E-01
     21 T   8 O     3.615255489525E-01  2.840217059787E-01  6.717894904298E-02
     22 F   8 O    -3.615255489525E-01 -2.159782940213E-01 -6.717894904298E-02
     23 F   8 O    -3.612512540554E-01 -2.159782940213E-01 -6.689697082483E-02
     24 T   8 O     3.612512540554E-01  2.840217059787E-01  6.689697082483E-02
     25 T   8 O    -1.855834027181E-01 -2.119679901803E-01 -2.907120509148E-01
     26 F   8 O     1.855834027181E-01  2.880320098197E-01  2.907120509148E-01
     27 F   8 O     1.858576976151E-01  2.880320098197E-01  2.909940291330E-01
     28 T   8 O    -1.858576976151E-01 -2.119679901803E-01 -2.909940291330E-01
     29 T   8 O    -4.593108520840E-01 -2.058962366542E-01 -3.913135483797E-01
     30 F   8 O     4.593108520840E-01  2.941037633458E-01  3.913135483797E-01
     31 F   8 O     4.595851469811E-01  2.941037633458E-01  3.915955265978E-01
     32 T   8 O    -4.595851469811E-01 -2.058962366542E-01 -3.915955265978E-01
     33 T   8 O    -3.616970970771E-01 -1.961497011788E-01  4.335564657074E-01
     34 F   8 O     3.616970970771E-01  3.038502988212E-01 -4.335564657074E-01
     35 F   8 O     3.619713919742E-01  3.038502988212E-01 -4.332744874892E-01
     36 T   8 O    -3.619713919742E-01 -1.961497011788E-01  4.332744874892E-01

 T = ATOM BELONGING TO THE ASYMMETRIC UNIT
 *******************************************************************************
 * GEOMETRY EDITING - INPUT COORDINATES ARE GIVEN IN ANGSTROM         
 *******************************************************************************

 GEOMETRY NOW FULLY CONSISTENT WITH THE GROUP

 GCALCO - MAX INDICES DIRECT LATTICE VECTOR    11    28    10
 NO.OF VECTORS CREATED 6999 STARS 1818 RMAX   164.98455 BOHR

 GEOMETRY FOR WAVE FUNCTION - DIMENSIONALITY OF THE SYSTEM    3
 (NON PERIODIC DIRECTION: LATTICE PARAMETER FORMALLY SET TO 500)
 *******************************************************************************
 LATTICE PARAMETERS (ANGSTROMS AND DEGREES) - BOHR = 0.5291772083 ANGSTROM
 PRIMITIVE CELL - CENTRING CODE 1/0 VOLUME=   395.775444 - DENSITY  6.273 g/cm^3
         A              B              C           ALPHA      BETA       GAMMA 
    11.05234996     3.74081732    11.05704812    90.000000 120.032453  90.000000
 *******************************************************************************
 ATOMS IN THE ASYMMETRIC UNIT   18 - ATOMS IN THE UNIT CELL:   36
     ATOM                 X/A                 Y/B                 Z/C    
 *******************************************************************************
      1 T  12 MG    4.979240064361E-01 -4.424856054213E-01 -2.510555377024E-01
      2 F  12 MG   -4.979240064361E-01  5.751439457869E-02  2.510555377024E-01
      3 F  12 MG   -4.976497115389E-01  5.751439457869E-02  2.513375159206E-01
      4 T  12 MG    4.976497115389E-01 -4.424856054213E-01 -2.513375159206E-01
      5 T  53 I    -1.659598451108E-01 -4.145205787691E-01 -7.962914037032E-02
      6 F  53 I     1.659598451108E-01  8.547942123089E-02  7.962914037032E-02
      7 F  53 I     1.662341400080E-01  8.547942123089E-02  7.991111858857E-02
      8 T  53 I    -1.662341400080E-01 -4.145205787691E-01 -7.991111858857E-02
      9 T  53 I    -3.329049575600E-01  8.531330243053E-02 -4.128271943522E-01
     10 F  53 I     3.329049575600E-01 -4.146866975695E-01  4.128271943522E-01
     11 F  53 I     3.331792524571E-01 -4.146866975695E-01  4.131091725704E-01
     12 T  53 I    -3.331792524571E-01  8.531330243053E-02 -4.131091725704E-01
     13 T   8 O    -3.198390894199E-01  2.985175166512E-01 -2.017288644500E-01
     14 F   8 O     3.198390894199E-01 -2.014824833488E-01  2.017288644500E-01
     15 F   8 O     3.201133843171E-01 -2.014824833488E-01  2.020108426682E-01
     16 T   8 O    -3.201133843171E-01  2.985175166512E-01 -2.020108426682E-01
     17 T   8 O     4.520754436897E-01  2.946675871432E-01 -1.152295698817E-01
     18 F   8 O    -4.520754436897E-01 -2.053324128568E-01  1.152295698817E-01
     19 F   8 O    -4.518011487926E-01 -2.053324128568E-01  1.155115480998E-01
     20 T   8 O     4.518011487926E-01  2.946675871432E-01 -1.155115480998E-01
     21 T   8 O     3.615255489525E-01  2.840217059787E-01  6.717894904298E-02
     22 F   8 O    -3.615255489525E-01 -2.159782940213E-01 -6.717894904298E-02
     23 F   8 O    -3.612512540554E-01 -2.159782940213E-01 -6.689697082483E-02
     24 T   8 O     3.612512540554E-01  2.840217059787E-01  6.689697082483E-02
     25 T   8 O    -1.855834027181E-01 -2.119679901803E-01 -2.907120509148E-01
     26 F   8 O     1.855834027181E-01  2.880320098197E-01  2.907120509148E-01
     27 F   8 O     1.858576976151E-01  2.880320098197E-01  2.909940291330E-01
     28 T   8 O    -1.858576976151E-01 -2.119679901803E-01 -2.909940291330E-01
     29 T   8 O    -4.593108520840E-01 -2.058962366542E-01 -3.913135483797E-01
     30 F   8 O     4.593108520840E-01  2.941037633458E-01  3.913135483797E-01
     31 F   8 O     4.595851469811E-01  2.941037633458E-01  3.915955265978E-01
     32 T   8 O    -4.595851469811E-01 -2.058962366542E-01 -3.915955265978E-01
     33 T   8 O    -3.616970970771E-01 -1.961497011788E-01  4.335564657074E-01
     34 F   8 O     3.616970970771E-01  3.038502988212E-01 -4.335564657074E-01
     35 F   8 O     3.619713919742E-01  3.038502988212E-01 -4.332744874892E-01
     36 T   8 O    -3.619713919742E-01 -1.961497011788E-01  4.332744874892E-01

 T = ATOM BELONGING TO THE ASYMMETRIC UNIT

 ****    2 SYMMOPS - TRANSLATORS IN FRACTIONAL UNITS
 **** MATRICES AND TRANSLATORS IN THE CRYSTALLOGRAPHIC REFERENCE FRAME
   V INV                    ROTATION MATRICES                   TRANSLATORS
   1   1  1.00  0.00  0.00  0.00  1.00  0.00  0.00  0.00  1.00  0.00  0.00  0.00
   2   2 -1.00  0.00  0.00  0.00  1.00  0.00  0.00  0.00 -1.00  0.00  0.50  0.00

 DIRECT LATTICE VECTORS CARTESIAN COMPONENTS (ANGSTROM)
          X                    Y                    Z
   0.110523499571E+02   0.000000000000E+00  -0.735694440000E-04
  -0.000000000000E+00   0.374081732276E+01   0.000000000000E+00
  -0.553388323324E+01   0.000000000000E+00   0.957258843767E+01


 CARTESIAN COORDINATES - PRIMITIVE CELL
 *******************************************************************************
 *      ATOM          X(ANGSTROM)         Y(ANGSTROM)         Z(ANGSTROM)
 *******************************************************************************
    1    12 MG    1.358659168636E+00  2.085559504928E+00  7.169300468255E+00
    2    12 MG    4.159807555224E+00  2.151508435480E-01  2.403214399971E+00
    3    12 MG    4.161278723885E+00  2.151508435480E-01  2.405913641223E+00
    4    12 MG   -4.161278723885E+00 -1.655257817832E+00 -2.405913641223E+00
    5    53 I     4.124878801642E+00  2.190171561060E+00  8.810270089389E+00
    6    53 I     1.393587922218E+00  3.197628996800E-01  7.622447788370E-01
    7    53 I     1.395059090879E+00  3.197628996800E-01  7.649440200890E-01
    8    53 I    -1.395059090879E+00 -1.550645761700E+00 -7.649440200890E-01
    9    53 I     4.123622119505E+00  3.191414795940E-01  5.620714532447E+00
   10    53 I     1.394844604355E+00 -1.551267181786E+00  3.951800335779E+00
   11    53 I     1.396315773016E+00  2.189550140974E+00  3.954499577030E+00
   12    53 I    -1.396315773016E+00  3.191414795940E-01 -3.954499577030E+00
   13     8 O     3.099837158271E+00  1.116699497436E+00  7.641471003232E+00
   14     8 O     2.418629565589E+00 -7.537091639440E-01  1.931043864994E+00
   15     8 O     2.420100734250E+00  2.987108158816E+00  1.933743106246E+00
   16     8 O    -2.420100734250E+00  1.116699497436E+00 -1.933743106246E+00
   17     8 O     1.002797621720E-01  1.102297614441E+00  8.469509930404E+00
   18     8 O     5.418186961688E+00 -7.681110469390E-01  1.103004937822E+00
   19     8 O     5.419658130349E+00  2.972706275821E+00  1.105704179073E+00
   20     8 O    -5.419658130349E+00  1.102297614441E+00 -1.105704179073E+00
   21     8 O     3.623946425720E+00  1.062473317765E+00  6.430498336300E-01
   22     8 O    -3.623946425720E+00 -8.079353436150E-01 -6.430498336300E-01
   23     8 O     1.895991466801E+00  2.932881979145E+00  8.932164275847E+00
   24     8 O     3.622475257059E+00  1.062473317765E+00  6.403505923790E-01
   25     8 O     5.076100555049E+00  2.947883793223E+00  6.789661704215E+00
   26     8 O     4.423661688110E-01  1.077475131843E+00  2.782853164011E+00
   27     8 O     4.438373374710E-01  1.077475131843E+00  2.785552405262E+00
   28     8 O    -4.438373374710E-01 -7.929335295370E-01 -2.785552405262E+00
   29     8 O     2.607485931852E+00  2.970597113993E+00  5.826665110747E+00
   30     8 O     2.910980792008E+00  1.100188452613E+00  3.745849757479E+00
   31     8 O     2.912451960669E+00  1.100188452613E+00  3.748548998730E+00
   32     8 O    -2.912451960669E+00 -7.702202087670E-01 -3.748548998730E+00
   33     8 O     4.655496205496E+00  3.007057122736E+00  4.150210651118E+00
   34     8 O     8.629705183640E-01  1.136648461356E+00  5.422304217108E+00
   35     8 O     8.644416870250E-01  1.136648461356E+00  5.425003458359E+00
   36     8 O    -8.644416870250E-01 -7.337602000240E-01 -5.425003458359E+00
 WARNING **** CRYSTA **** TESTGEOM  DIRECTIVE - GEOMETRY EDITING COMPLETE
 TTTTTTTTTTTTTTTTTTTTTTTTTTTTTT END         TELAPSE        0.02 TCPU        0.02
 EEEEEEEEEE TERMINATION  DATE 31 07 2025 TIME 15:14:24.9
