
         
 *******************************************************************************
 *                                                                             *
 *                               CRYSTAL23                                     *
 *                      public : 1.0.1 - October 2022                          *
 *                       HTTP://WWW.CRYSTAL.UNITO.IT                           *
 *                                                                             *
 *                              MAIN AUTHORS                                   *
 *                                                                             *
 *  R. DOVESI(1,11), V.R. SAUNDERS(2), C. ROETTI(1,11), R. ORLANDO(1,11),      *
 *  C.M. ZICOVICH-WILSON(1,3), F. PASCALE(4), B. CIVALLERI(1,11),              *
 *  K. DOLL(5), N.M. HARRISON(6), I.J. BUSH(7), Ph. D'ARCO(8),                 *
 *  M. LLUNELL(9), M. CAUSA'(10), Y. NOEL(8), L. MASCHIO(1,11), A. ERBA(1,11)  *
 *  M. RE'RAT(14), S. CASASSA(1,11), B.G. SEARLE(2), J.K. DESMARAIS(1)         *
 *                                                                             *
 *        CONTRIBUTIONS TO THE CODE HAVE ALSO BEEN GIVEN BY                    *
 *                                                                             *
 *  M. FERRABONE(1,11), M. DE LA PIERRE(1,11), M. FERRERO(1,11),               *
 *  J. BAIMA(1,11), E. ALBANESE(1,11), M.F. PEINTINGER(12), R. BAST(13),       *
 *  B. KIRTMAN(15), V. LACIVITA(1,11), R. DEMICHELIS(1,16)                     *
 *  G. BRANDEBURG(17), S. SALUSTRO(1,11), G. SANSONE(1,11)                     *
 *  M.T. RUGGIERO(18), L.E. DAGA(1), L. DONA'(1), A. COSSARD(1)                *
 *                                                                             *
 * (1) THEORETICAL CHEMISTRY GROUP - UNIVERSITA' DI TORINO - TORINO (ITALY)    *
 * (2) SCIENTIFIC COMPUTING DEPARTMENT - STFC DARESBURY (UK)                   *
 * (3) UNIVERSIDAD AUTONOMA DEL ESTADO DE MORELOS - CUERNAVACA (MEXICO)        *
 * (4) UNIVERSITE' DE LORRAINE - NANCY (FRANCE)                                *
 * (5) UNIVERSITAET STUTTGART- STUTTGART (GERMANY)                             *
 * (6) IMPERIAL COLLEGE - LONDON (UK)                                          *
 * (7) SCIENTIFIC COMPUTING DEPARTMENT - STFC RAL (UK)                         *
 * (8) UPMC - SORBONNE UNIVERSITES - PARIS (FRANCE)                            *
 * (9) UNIVERSIDAD DE BARCELONA - BARCELONA (SPAIN)                            *
 *(10) UNIVERSITA' DI NAPOLI "FEDERICO II" - NAPOLI (ITALY)                    *
 *(11) NIS - NANOSTRUCTURED INTERFACES AND SURFACES - TORINO (ITALY)           *
 *(12) MPI FUER CHEMISCHE ENERGIEKONVERSION - MUELHEIM AN DER RUHR (GERMANY)   *
 *(13) UNIVERSITY OF TROMSO - TROMSO (NORWAY)                                  *
 *(14) UNIVERSITE' DE PAU ET DES PAYS DE L'ADOUR - PAU (FRANCE)                *
 *(15) UNIVERSITY OF CALIFORNIA SANTA BARBARA - SANTA BARBARA (USA)            *
 *(16) CURTIN UNIVERSITY - PERTH (AUSTRALIA)                                   *
 *(17) UNIVERSITY COLLEGE LONDON - LONDON (UK)                                 *
 *(18) UNIVERSITY OF VERMONT - BURLINGTON (USA)                                *
 *                                                                             *
 *******************************************************************************
 EEEEEEEEEE STARTING  DATE 31 07 2025 TIME 15:14:24.6
 Check                                                                           
 filename=fort.34                        0           0

 GEOMETRY INPUT FROM EXTERNAL FILE (FORTRAN UNIT 34)
 3D - CRYSTAL 

 *******************************************************************************
 LATTICE PARAMETERS  (ANGSTROMS AND DEGREES) - PRIMITIVE CELL
       A          B          C        ALPHA      BETA     GAMMA        VOLUME
   10.94180    4.54438   11.00577    90.00000 119.88701  90.00000    474.468648
 INFORMATION **** CHKGRP **** SPGR WITH NO INVERSION

 NUMBER OF IRREDUCIBLE ATOMS IN THE CELL:   18

 CARTESIAN COORDINATES (ANGSTROM) - IRREDUCIBLE ATOMS AND SYMMETRY RELATED

 AT.IRR.  AT  AT.N.          X                   Y                   Z
     1     1    12    1.252488204944E+00  2.595924927920E+00  7.088802100771E+00
     1     2    12    4.210756904676E+00  3.237360153900E-01  2.450144718812E+00
     3     3    12    4.179984661708E+00  3.237360153900E-01  2.409157752204E+00
     3     4    12   -4.179984661708E+00 -1.948452897140E+00 -2.409157752204E+00
     5     5    53    4.013842088604E+00  2.387344608299E+00  8.800656034473E+00
     5     6    53    1.449403021016E+00  1.151556957690E-01  7.382907851100E-01
     7     7    53    1.418630778048E+00  1.151556957690E-01  6.973038185030E-01
     7     8    53   -1.418630778048E+00 -2.157033216761E+00 -6.973038185030E-01
     9     9    53    4.016064243937E+00  1.003463765580E-01  5.650059280633E+00
     9    10    53    1.447180865683E+00 -2.171842535972E+00  3.888887538950E+00
    11    11    53    1.416408622715E+00  2.372535289088E+00  3.847900572342E+00
    11    12    53   -1.416408622715E+00  1.003463765580E-01 -3.847900572342E+00
    13    13     8    2.906916435347E+00  1.487355209500E+00  7.598189600153E+00
    13    14     8    2.556328674273E+00 -7.848337030300E-01  1.940757219430E+00
    15    15     8    2.525556431305E+00  3.759544122030E+00  1.899770252822E+00
    15    16     8   -2.525556431305E+00  1.487355209500E+00 -1.899770252822E+00
    17    17     8    4.504348532800E-02  1.437204937704E+00  8.327442684871E+00
    17    18     8    5.418201624292E+00 -8.349839748260E-01  1.211504134712E+00
    19    19     8    5.387429381324E+00  3.709393850234E+00  1.170517168105E+00
    19    20     8   -5.387429381324E+00  1.437204937704E+00 -1.170517168105E+00
    21    21     8    3.608281963801E+00  1.304008141644E+00  7.290932715050E-01
    21    22     8   -3.608281963801E+00 -9.681807708860E-01 -7.290932715050E-01
    23    23     8    1.824190902851E+00  3.576197054174E+00  8.768866581470E+00
    23    24     8    3.639054206769E+00  1.304008141644E+00  7.700802381130E-01
    25    25     8    4.954255782044E+00  3.588781690740E+00  6.852781388438E+00
    25    26     8    5.089893275760E-01  1.316592778210E+00  2.686165431145E+00
    27    27     8    4.782170846080E-01  1.316592778210E+00  2.645178464537E+00
    27    28     8   -4.782170846080E-01 -9.555961343200E-01 -2.645178464537E+00
    29    29     8    2.423251223601E+00  3.687505668517E+00  5.746292069201E+00
    29    30     8    3.039993886019E+00  1.415316755987E+00  3.792654750382E+00
    31    31     8    3.009221643051E+00  1.415316755987E+00  3.751667783774E+00
    31    32     8   -3.009221643051E+00 -8.568721565430E-01 -3.751667783774E+00
    33    33     8    4.636606051666E+00  3.822601440376E+00  4.106886757600E+00
    33    34     8    8.266390579540E-01  1.550412527846E+00  5.432060061983E+00
    35    35     8    7.958668149850E-01  1.550412527846E+00  5.391073095376E+00
    35    36     8   -7.958668149850E-01 -7.217763846840E-01 -5.391073095376E+00

 SPACE  GROUP  N.                     :    4
 NUMBER OF SYMMETRY OPERATORS         :    2
 *******************************************************************************
 LATTICE PARAMETERS (ANGSTROMS AND DEGREES) - BOHR = 0.5291772083 ANGSTROM
 PRIMITIVE CELL - CENTRING CODE 1/0 VOLUME=   474.468648 - DENSITY  5.232 g/cm^3
         A              B              C           ALPHA      BETA       GAMMA 
    10.94180071     4.54437783    11.00576722    90.000000 119.887013  90.000000
 *******************************************************************************
 ATOMS IN THE ASYMMETRIC UNIT   18 - ATOMS IN THE UNIT CELL:   36
     ATOM                 X/A                 Y/B                 Z/C    
 *******************************************************************************
      1 T  12 MG    4.864743499059E-01 -4.287612016755E-01 -2.570272260141E-01
      2 F  12 MG   -4.864743499059E-01  7.123879832455E-02  2.570272260141E-01
      3 T  12 MG   -4.914383352460E-01  7.123879832455E-02  2.527299812935E-01
      4 F  12 MG    4.914383352460E-01 -4.287612016755E-01 -2.527299812935E-01
      5 T  53 I    -1.712488605171E-01 -4.746597443694E-01 -7.745977988042E-02
      6 F  53 I     1.712488605171E-01  2.534025563059E-02  7.745977988042E-02
      7 T  53 I     1.662848751771E-01  2.534025563059E-02  7.316253515998E-02
      8 F  53 I    -1.662848751771E-01 -4.746597443694E-01 -7.316253515998E-02
      9 T  53 I    -3.363658050266E-01  2.208143345930E-02 -4.076378943578E-01
     10 F  53 I     3.363658050266E-01 -4.779185665407E-01  4.076378943578E-01
     11 T  53 I     3.314018196865E-01 -4.779185665407E-01  4.033406496373E-01
     12 F  53 I    -3.314018196865E-01  2.208143345930E-02 -4.033406496373E-01
     13 T   8 O    -3.355439234936E-01  3.272956753943E-01 -2.035437633055E-01
     14 F   8 O     3.355439234936E-01 -1.727043246057E-01  2.035437633055E-01
     15 T   8 O     3.305799381535E-01 -1.727043246057E-01  1.992465185849E-01
     16 F   8 O    -3.305799381535E-01  3.272956753943E-01 -1.992465185849E-01
     17 T   8 O     4.410808379945E-01  3.162600014855E-01 -1.272926150649E-01
     18 F   8 O    -4.410808379945E-01 -1.837399985145E-01  1.272926150649E-01
     19 T   8 O    -4.460448233345E-01 -1.837399985145E-01  1.229953703445E-01
     20 F   8 O     4.460448233345E-01  3.162600014855E-01 -1.229953703445E-01
     21 T   8 O     3.681374744357E-01  2.869497633874E-01  7.662683602787E-02
     22 F   8 O    -3.681374744357E-01 -2.130502366126E-01 -7.662683602787E-02
     23 T   8 O    -3.731014597758E-01 -2.130502366126E-01 -8.092408074842E-02
     24 F   8 O     3.731014597758E-01  2.869497633874E-01  8.092408074842E-02
     25 T   8 O    -1.874835084871E-01 -2.102809605861E-01 -2.815373509741E-01
     26 F   8 O     1.874835084871E-01  2.897190394139E-01  2.815373509741E-01
     27 T   8 O     1.825195231470E-01  2.897190394139E-01  2.772401062535E-01
     28 F   8 O    -1.825195231470E-01 -2.102809605861E-01 -2.772401062535E-01
     29 T   8 O    -4.769359932258E-01 -1.885565394272E-01 -3.976494384714E-01
     30 F   8 O     4.769359932258E-01  3.114434605728E-01  3.976494384714E-01
     31 T   8 O     4.719720078857E-01  3.114434605728E-01  3.933521937508E-01
     32 F   8 O    -4.719720078857E-01 -1.885565394272E-01 -3.933521937508E-01
     33 T   8 O    -3.606083215020E-01 -1.588284276681E-01  4.306773646349E-01
     34 F   8 O     3.606083215020E-01  3.411715723319E-01 -4.306773646349E-01
     35 T   8 O     3.556443361619E-01  3.411715723319E-01 -4.349746093553E-01
     36 F   8 O    -3.556443361619E-01 -1.588284276681E-01  4.349746093553E-01

 T = ATOM BELONGING TO THE ASYMMETRIC UNIT
 *******************************************************************************
 * GEOMETRY EDITING - INPUT COORDINATES ARE GIVEN IN ANGSTROM         
 *******************************************************************************

 GEOMETRY NOW FULLY CONSISTENT WITH THE GROUP

 GCALCO - MAX INDICES DIRECT LATTICE VECTOR    11    25    11
 NO.OF VECTORS CREATED 6999 STARS 1824 RMAX   174.70902 BOHR

 GEOMETRY FOR WAVE FUNCTION - DIMENSIONALITY OF THE SYSTEM    3
 (NON PERIODIC DIRECTION: LATTICE PARAMETER FORMALLY SET TO 500)
 *******************************************************************************
 LATTICE PARAMETERS (ANGSTROMS AND DEGREES) - BOHR = 0.5291772083 ANGSTROM
 PRIMITIVE CELL - CENTRING CODE 1/0 VOLUME=   474.468648 - DENSITY  5.232 g/cm^3
         A              B              C           ALPHA      BETA       GAMMA 
    10.94180071     4.54437783    11.00576722    90.000000 119.887013  90.000000
 *******************************************************************************
 ATOMS IN THE ASYMMETRIC UNIT   18 - ATOMS IN THE UNIT CELL:   36
     ATOM                 X/A                 Y/B                 Z/C    
 *******************************************************************************
      1 T  12 MG    4.864743499059E-01 -4.287612016755E-01 -2.570272260141E-01
      2 F  12 MG   -4.864743499059E-01  7.123879832455E-02  2.570272260141E-01
      3 T  12 MG   -4.914383352460E-01  7.123879832455E-02  2.527299812935E-01
      4 F  12 MG    4.914383352460E-01 -4.287612016755E-01 -2.527299812935E-01
      5 T  53 I    -1.712488605171E-01 -4.746597443694E-01 -7.745977988042E-02
      6 F  53 I     1.712488605171E-01  2.534025563059E-02  7.745977988042E-02
      7 T  53 I     1.662848751771E-01  2.534025563059E-02  7.316253515998E-02
      8 F  53 I    -1.662848751771E-01 -4.746597443694E-01 -7.316253515998E-02
      9 T  53 I    -3.363658050266E-01  2.208143345930E-02 -4.076378943578E-01
     10 F  53 I     3.363658050266E-01 -4.779185665407E-01  4.076378943578E-01
     11 T  53 I     3.314018196865E-01 -4.779185665407E-01  4.033406496373E-01
     12 F  53 I    -3.314018196865E-01  2.208143345930E-02 -4.033406496373E-01
     13 T   8 O    -3.355439234936E-01  3.272956753943E-01 -2.035437633055E-01
     14 F   8 O     3.355439234936E-01 -1.727043246057E-01  2.035437633055E-01
     15 T   8 O     3.305799381535E-01 -1.727043246057E-01  1.992465185849E-01
     16 F   8 O    -3.305799381535E-01  3.272956753943E-01 -1.992465185849E-01
     17 T   8 O     4.410808379945E-01  3.162600014855E-01 -1.272926150649E-01
     18 F   8 O    -4.410808379945E-01 -1.837399985145E-01  1.272926150649E-01
     19 T   8 O    -4.460448233345E-01 -1.837399985145E-01  1.229953703445E-01
     20 F   8 O     4.460448233345E-01  3.162600014855E-01 -1.229953703445E-01
     21 T   8 O     3.681374744357E-01  2.869497633874E-01  7.662683602787E-02
     22 F   8 O    -3.681374744357E-01 -2.130502366126E-01 -7.662683602787E-02
     23 T   8 O    -3.731014597758E-01 -2.130502366126E-01 -8.092408074842E-02
     24 F   8 O     3.731014597758E-01  2.869497633874E-01  8.092408074842E-02
     25 T   8 O    -1.874835084871E-01 -2.102809605861E-01 -2.815373509741E-01
     26 F   8 O     1.874835084871E-01  2.897190394139E-01  2.815373509741E-01
     27 T   8 O     1.825195231470E-01  2.897190394139E-01  2.772401062535E-01
     28 F   8 O    -1.825195231470E-01 -2.102809605861E-01 -2.772401062535E-01
     29 T   8 O    -4.769359932258E-01 -1.885565394272E-01 -3.976494384714E-01
     30 F   8 O     4.769359932258E-01  3.114434605728E-01  3.976494384714E-01
     31 T   8 O     4.719720078857E-01  3.114434605728E-01  3.933521937508E-01
     32 F   8 O    -4.719720078857E-01 -1.885565394272E-01 -3.933521937508E-01
     33 T   8 O    -3.606083215020E-01 -1.588284276681E-01  4.306773646349E-01
     34 F   8 O     3.606083215020E-01  3.411715723319E-01 -4.306773646349E-01
     35 T   8 O     3.556443361619E-01  3.411715723319E-01 -4.349746093553E-01
     36 F   8 O    -3.556443361619E-01 -1.588284276681E-01  4.349746093553E-01

 T = ATOM BELONGING TO THE ASYMMETRIC UNIT

 ****    2 SYMMOPS - TRANSLATORS IN FRACTIONAL UNITS
 **** MATRICES AND TRANSLATORS IN THE CRYSTALLOGRAPHIC REFERENCE FRAME
   V INV                    ROTATION MATRICES                   TRANSLATORS
   1   1  1.00  0.00  0.00  0.00  1.00  0.00  0.00  0.00  1.00  0.00  0.00  0.00
   2   2 -1.00  0.00 -0.00  0.00  1.00  0.00  0.00  0.00 -1.00  0.00  0.50  0.00

 DIRECT LATTICE VECTORS CARTESIAN COMPONENTS (ANGSTROM)
          X                    Y                    Z
   0.109417988792E+02   0.000000000000E+00  -0.633267563700E-02
   0.000000000000E+00   0.454437782506E+01  -0.000000000000E+00
  -0.547855376958E+01   0.000000000000E+00   0.954527949522E+01


 CARTESIAN COORDINATES - PRIMITIVE CELL
 *******************************************************************************
 *      ATOM          X(ANGSTROM)         Y(ANGSTROM)         Z(ANGSTROM)
 *******************************************************************************
    1    12 MG    1.252488204944E+00  2.595924927920E+00  7.088802100771E+00
    2    12 MG    4.210756904676E+00  3.237360153900E-01  2.450144718812E+00
    3    12 MG    4.179984661708E+00  3.237360153900E-01  2.409157752204E+00
    4    12 MG   -4.179984661708E+00 -1.948452897140E+00 -2.409157752204E+00
    5    53 I     4.013842088604E+00  2.387344608299E+00  8.800656034473E+00
    6    53 I     1.449403021016E+00  1.151556957690E-01  7.382907851100E-01
    7    53 I     1.418630778048E+00  1.151556957690E-01  6.973038185030E-01
    8    53 I    -1.418630778048E+00 -2.157033216761E+00 -6.973038185030E-01
    9    53 I     4.016064243937E+00  1.003463765580E-01  5.650059280633E+00
   10    53 I     1.447180865683E+00 -2.171842535972E+00  3.888887538950E+00
   11    53 I     1.416408622715E+00  2.372535289088E+00  3.847900572342E+00
   12    53 I    -1.416408622715E+00  1.003463765580E-01 -3.847900572342E+00
   13     8 O     2.906916435347E+00  1.487355209500E+00  7.598189600153E+00
   14     8 O     2.556328674273E+00 -7.848337030300E-01  1.940757219430E+00
   15     8 O     2.525556431305E+00  3.759544122030E+00  1.899770252822E+00
   16     8 O    -2.525556431305E+00  1.487355209500E+00 -1.899770252822E+00
   17     8 O     4.504348532800E-02  1.437204937704E+00  8.327442684871E+00
   18     8 O     5.418201624292E+00 -8.349839748260E-01  1.211504134712E+00
   19     8 O     5.387429381324E+00  3.709393850234E+00  1.170517168105E+00
   20     8 O    -5.387429381324E+00  1.437204937704E+00 -1.170517168105E+00
   21     8 O     3.608281963801E+00  1.304008141644E+00  7.290932715050E-01
   22     8 O    -3.608281963801E+00 -9.681807708860E-01 -7.290932715050E-01
   23     8 O     1.824190902851E+00  3.576197054174E+00  8.768866581470E+00
   24     8 O     3.639054206769E+00  1.304008141644E+00  7.700802381130E-01
   25     8 O     4.954255782044E+00  3.588781690740E+00  6.852781388438E+00
   26     8 O     5.089893275760E-01  1.316592778210E+00  2.686165431145E+00
   27     8 O     4.782170846080E-01  1.316592778210E+00  2.645178464537E+00
   28     8 O    -4.782170846080E-01 -9.555961343200E-01 -2.645178464537E+00
   29     8 O     2.423251223601E+00  3.687505668517E+00  5.746292069201E+00
   30     8 O     3.039993886019E+00  1.415316755987E+00  3.792654750382E+00
   31     8 O     3.009221643051E+00  1.415316755987E+00  3.751667783774E+00
   32     8 O    -3.009221643051E+00 -8.568721565430E-01 -3.751667783774E+00
   33     8 O     4.636606051666E+00  3.822601440376E+00  4.106886757600E+00
   34     8 O     8.266390579540E-01  1.550412527846E+00  5.432060061983E+00
   35     8 O     7.958668149850E-01  1.550412527846E+00  5.391073095376E+00
   36     8 O    -7.958668149850E-01 -7.217763846840E-01 -5.391073095376E+00
 WARNING **** CRYSTA **** TESTGEOM  DIRECTIVE - GEOMETRY EDITING COMPLETE
 TTTTTTTTTTTTTTTTTTTTTTTTTTTTTT END         TELAPSE        0.07 TCPU        0.04
 EEEEEEEEEE TERMINATION  DATE 31 07 2025 TIME 15:14:24.6
