
         
 *******************************************************************************
 *                                                                             *
 *                               CRYSTAL23                                     *
 *                      public : 1.0.1 - October 2022                          *
 *                       HTTP://WWW.CRYSTAL.UNITO.IT                           *
 *                                                                             *
 *                              MAIN AUTHORS                                   *
 *                                                                             *
 *  R. DOVESI(1,11), V.R. SAUNDERS(2), C. ROETTI(1,11), R. ORLANDO(1,11),      *
 *  C.M. ZICOVICH-WILSON(1,3), F. PASCALE(4), B. CIVALLERI(1,11),              *
 *  K. DOLL(5), N.M. HARRISON(6), I.J. BUSH(7), Ph. D'ARCO(8),                 *
 *  M. LLUNELL(9), M. CAUSA'(10), Y. NOEL(8), L. MASCHIO(1,11), A. ERBA(1,11)  *
 *  M. RE'RAT(14), S. CASASSA(1,11), B.G. SEARLE(2), J.K. DESMARAIS(1)         *
 *                                                                             *
 *        CONTRIBUTIONS TO THE CODE HAVE ALSO BEEN GIVEN BY                    *
 *                                                                             *
 *  M. FERRABONE(1,11), M. DE LA PIERRE(1,11), M. FERRERO(1,11),               *
 *  J. BAIMA(1,11), E. ALBANESE(1,11), M.F. PEINTINGER(12), R. BAST(13),       *
 *  B. KIRTMAN(15), V. LACIVITA(1,11), R. DEMICHELIS(1,16)                     *
 *  G. BRANDEBURG(17), S. SALUSTRO(1,11), G. SANSONE(1,11)                     *
 *  M.T. RUGGIERO(18), L.E. DAGA(1), L. DONA'(1), A. COSSARD(1)                *
 *                                                                             *
 * (1) THEORETICAL CHEMISTRY GROUP - UNIVERSITA' DI TORINO - TORINO (ITALY)    *
 * (2) SCIENTIFIC COMPUTING DEPARTMENT - STFC DARESBURY (UK)                   *
 * (3) UNIVERSIDAD AUTONOMA DEL ESTADO DE MORELOS - CUERNAVACA (MEXICO)        *
 * (4) UNIVERSITE' DE LORRAINE - NANCY (FRANCE)                                *
 * (5) UNIVERSITAET STUTTGART- STUTTGART (GERMANY)                             *
 * (6) IMPERIAL COLLEGE - LONDON (UK)                                          *
 * (7) SCIENTIFIC COMPUTING DEPARTMENT - STFC RAL (UK)                         *
 * (8) UPMC - SORBONNE UNIVERSITES - PARIS (FRANCE)                            *
 * (9) UNIVERSIDAD DE BARCELONA - BARCELONA (SPAIN)                            *
 *(10) UNIVERSITA' DI NAPOLI "FEDERICO II" - NAPOLI (ITALY)                    *
 *(11) NIS - NANOSTRUCTURED INTERFACES AND SURFACES - TORINO (ITALY)           *
 *(12) MPI FUER CHEMISCHE ENERGIEKONVERSION - MUELHEIM AN DER RUHR (GERMANY)   *
 *(13) UNIVERSITY OF TROMSO - TROMSO (NORWAY)                                  *
 *(14) UNIVERSITE' DE PAU ET DES PAYS DE L'ADOUR - PAU (FRANCE)                *
 *(15) UNIVERSITY OF CALIFORNIA SANTA BARBARA - SANTA BARBARA (USA)            *
 *(16) CURTIN UNIVERSITY - PERTH (AUSTRALIA)                                   *
 *(17) UNIVERSITY COLLEGE LONDON - LONDON (UK)                                 *
 *(18) UNIVERSITY OF VERMONT - BURLINGTON (USA)                                *
 *                                                                             *
 *******************************************************************************
 EEEEEEEEEE STARTING  DATE 31 07 2025 TIME 15:14:24.7
 Check                                                                           
 filename=fort.34                        0           0

 GEOMETRY INPUT FROM EXTERNAL FILE (FORTRAN UNIT 34)
 3D - CRYSTAL 

 *******************************************************************************
 LATTICE PARAMETERS  (ANGSTROMS AND DEGREES) - PRIMITIVE CELL
       A          B          C        ALPHA      BETA     GAMMA        VOLUME
   10.97645    4.40282   11.02888    90.00000 119.94431  90.00000    461.847323
 INFORMATION **** CHKGRP **** SPGR WITH NO INVERSION

 NUMBER OF IRREDUCIBLE ATOMS IN THE CELL:   18

 CARTESIAN COORDINATES (ANGSTROM) - IRREDUCIBLE ATOMS AND SYMMETRY RELATED

 AT.IRR.  AT  AT.N.          X                   Y                   Z
     1     1    12    4.179285860002E+00  2.508266145151E+00  2.411733701661E+00
     1     2    12   -4.179285860002E+00  3.068549246710E-01 -2.411733701661E+00
     3     3    12    1.274339854038E+00  3.068549246710E-01  7.114042182641E+00
     3     4    12    4.203613696322E+00 -1.894556295809E+00  2.438787667019E+00
     5     5    53    1.415188631971E+00  2.346900345734E+00  7.118961201690E-01
     5     6    53   -1.415188631971E+00  1.454891252540E-01 -7.118961201690E-01
     7     7    53    4.038437082069E+00  1.454891252540E-01  8.813879764132E+00
     7     8    53    1.439516468291E+00 -2.055922095226E+00  7.389500855280E-01
     9     9    53    1.412284712133E+00  1.352837982890E-01  3.874293859456E+00
     9    10    53   -1.412284712133E+00 -2.066127422191E+00 -3.874293859456E+00
    11    11    53    4.041341001907E+00  2.336695018769E+00  5.651482024846E+00
    11    12    53    1.436612548453E+00  1.352837982890E-01  3.901347824814E+00
    13    13     8    2.511628677072E+00  1.421659561414E+00  1.909069770346E+00
    13    14     8   -2.511628677072E+00 -7.797516590660E-01 -1.909069770346E+00
    15    15     8    2.941997036968E+00  3.623070781894E+00  7.616706113955E+00
    15    16     8    2.535956513392E+00  1.421659561414E+00  1.936123735705E+00
    17    17     8    5.397080265746E+00  1.376244320882E+00  1.164075845056E+00
    17    18     8   -5.397080265746E+00 -8.251668995980E-01 -1.164075845056E+00
    19    19     8    5.654544829400E-02  3.577655541362E+00  8.361700039245E+00
    19    20     8    5.421408102066E+00  1.376244320882E+00  1.191129810415E+00
    21    21     8    1.835794336687E+00  1.260397322391E+00  8.812800239979E+00
    21    22     8    3.642159213673E+00 -9.410138980890E-01  7.400296096810E-01
    23    23     8    3.617831377352E+00  3.461808542871E+00  7.129756443220E-01
    23    24     8   -3.617831377352E+00  1.260397322391E+00 -7.129756443220E-01
    25    25     8    4.697917414680E-01  3.478249521220E+00  2.676536169616E+00
    25    26     8   -4.697917414680E-01  1.276838300740E+00 -2.676536169616E+00
    27    27     8    4.983833972572E+00  1.276838300740E+00  6.849239714686E+00
    27    28     8    4.941195777880E-01 -9.245729197400E-01  2.703590134974E+00
    29    29     8    2.996852119251E+00  3.568425129368E+00  3.752838320389E+00
    29    30     8   -2.996852119251E+00  1.367013908888E+00 -3.752838320389E+00
    31    31     8    2.456773594789E+00  1.367013908888E+00  5.772937563912E+00
    31    32     8    3.021179955571E+00 -8.343973115920E-01  3.779892285748E+00
    33    33     8    8.101717962530E-01  3.679850849124E+00  5.408820234536E+00
    33    34     8   -8.101717962530E-01  1.478439628644E+00 -5.408820234536E+00
    35    35     8    4.643453917787E+00  1.478439628644E+00  4.116955649765E+00
    35    36     8    8.344996325730E-01 -7.229715918360E-01  5.435874199895E+00

 SPACE  GROUP  N.                     :    4
 NUMBER OF SYMMETRY OPERATORS         :    2
 *******************************************************************************
 LATTICE PARAMETERS (ANGSTROMS AND DEGREES) - BOHR = 0.5291772083 ANGSTROM
 PRIMITIVE CELL - CENTRING CODE 1/0 VOLUME=   461.847323 - DENSITY  5.375 g/cm^3
         A              B              C           ALPHA      BETA       GAMMA 
    10.97644932     4.40282244    11.02887698    90.000000 119.944306  90.000000
 *******************************************************************************
 ATOMS IN THE ASYMMETRIC UNIT   18 - ATOMS IN THE UNIT CELL:   36
     ATOM                 X/A                 Y/B                 Z/C    
 *******************************************************************************
      1 T  12 MG   -4.926799660809E-01 -4.303049512476E-01  2.526665766071E-01
      2 F  12 MG    4.926799660809E-01  6.969504875243E-02 -2.526665766071E-01
      3 T  12 MG    4.890446089560E-01  6.969504875243E-02 -2.554992558407E-01
      4 F  12 MG   -4.890446089560E-01 -4.303049512476E-01  2.554992558407E-01
      5 T  53 I     1.662970768712E-01 -4.669554865760E-01  7.459541248021E-02
      6 F  53 I    -1.662970768712E-01  3.304451342405E-02 -7.459541248021E-02
      7 T  53 I    -1.699324339962E-01  3.304451342405E-02 -7.742809171392E-02
      8 F  53 I     1.699324339962E-01 -4.669554865760E-01  7.742809171392E-02
      9 T  53 I     3.317974415713E-01  3.072660778469E-02  4.055060474079E-01
     10 F  53 I    -3.317974415713E-01 -4.692733922153E-01 -4.055060474079E-01
     11 T  53 I    -3.354327986963E-01 -4.692733922153E-01 -4.083387266415E-01
     12 F  53 I     3.354327986963E-01  3.072660778469E-02  4.083387266415E-01
     13 T   8 O     3.289802334482E-01  3.228973188172E-01  1.999466553764E-01
     14 F   8 O    -3.289802334482E-01 -1.771026811828E-01 -1.999466553764E-01
     15 T   8 O    -3.326155905732E-01 -1.771026811828E-01 -2.027793346101E-01
     16 F   8 O     3.326155905732E-01  3.228973188172E-01  2.027793346101E-01
     17 T   8 O    -4.470884821828E-01  3.125822899599E-01  1.222013925621E-01
     18 F   8 O     4.470884821828E-01 -1.874177100401E-01 -1.222013925621E-01
     19 T   8 O     4.434531250578E-01 -1.874177100401E-01 -1.250340717958E-01
     20 F   8 O    -4.434531250578E-01  3.125822899599E-01  1.250340717958E-01
     21 T   8 O    -3.707393733710E-01  2.862703048539E-01 -7.770160529857E-02
     22 F   8 O     3.707393733710E-01 -2.137296951461E-01  7.770160529857E-02
     23 T   8 O     3.671040162459E-01 -2.137296951461E-01  7.486892606486E-02
     24 F   8 O    -3.671040162459E-01  2.862703048539E-01 -7.486892606486E-02
     25 T   8 O     1.831145118405E-01 -2.099955045061E-01  2.801049124233E-01
     26 F   8 O    -1.831145118405E-01  2.900044954939E-01 -2.801049124233E-01
     27 T   8 O    -1.867498689655E-01  2.900044954939E-01 -2.829375916569E-01
     28 F   8 O     1.867498689655E-01 -2.099955045061E-01  2.829375916569E-01
     29 T   8 O     4.698495920316E-01 -1.895141861342E-01  3.929125348381E-01
     30 F   8 O    -4.698495920316E-01  3.104858138658E-01 -3.929125348381E-01
     31 T   8 O    -4.734849491566E-01  3.104858138658E-01 -3.957452140718E-01
     32 F   8 O     4.734849491566E-01 -1.895141861342E-01  3.957452140718E-01
     33 T   8 O     3.573565209247E-01 -1.642063929515E-01 -4.339661915864E-01
     34 F   8 O    -3.573565209247E-01  3.357936070485E-01  4.339661915864E-01
     35 T   8 O    -3.609918780497E-01  3.357936070485E-01  4.311335123527E-01
     36 F   8 O     3.609918780497E-01 -1.642063929515E-01 -4.311335123527E-01

 T = ATOM BELONGING TO THE ASYMMETRIC UNIT
 *******************************************************************************
 * GEOMETRY EDITING - INPUT COORDINATES ARE GIVEN IN ANGSTROM         
 *******************************************************************************

 GEOMETRY NOW FULLY CONSISTENT WITH THE GROUP

 GCALCO - MAX INDICES DIRECT LATTICE VECTOR    11    25    11
 NO.OF VECTORS CREATED 6999 STARS 1824 RMAX   172.90389 BOHR

 GEOMETRY FOR WAVE FUNCTION - DIMENSIONALITY OF THE SYSTEM    3
 (NON PERIODIC DIRECTION: LATTICE PARAMETER FORMALLY SET TO 500)
 *******************************************************************************
 LATTICE PARAMETERS (ANGSTROMS AND DEGREES) - BOHR = 0.5291772083 ANGSTROM
 PRIMITIVE CELL - CENTRING CODE 1/0 VOLUME=   461.847323 - DENSITY  5.375 g/cm^3
         A              B              C           ALPHA      BETA       GAMMA 
    10.97644932     4.40282244    11.02887698    90.000000 119.944306  90.000000
 *******************************************************************************
 ATOMS IN THE ASYMMETRIC UNIT   18 - ATOMS IN THE UNIT CELL:   36
     ATOM                 X/A                 Y/B                 Z/C    
 *******************************************************************************
      1 T  12 MG   -4.926799660809E-01 -4.303049512476E-01  2.526665766071E-01
      2 F  12 MG    4.926799660809E-01  6.969504875243E-02 -2.526665766071E-01
      3 T  12 MG    4.890446089560E-01  6.969504875243E-02 -2.554992558407E-01
      4 F  12 MG   -4.890446089560E-01 -4.303049512476E-01  2.554992558407E-01
      5 T  53 I     1.662970768712E-01 -4.669554865760E-01  7.459541248021E-02
      6 F  53 I    -1.662970768712E-01  3.304451342405E-02 -7.459541248021E-02
      7 T  53 I    -1.699324339962E-01  3.304451342405E-02 -7.742809171392E-02
      8 F  53 I     1.699324339962E-01 -4.669554865760E-01  7.742809171392E-02
      9 T  53 I     3.317974415713E-01  3.072660778469E-02  4.055060474079E-01
     10 F  53 I    -3.317974415713E-01 -4.692733922153E-01 -4.055060474079E-01
     11 T  53 I    -3.354327986963E-01 -4.692733922153E-01 -4.083387266415E-01
     12 F  53 I     3.354327986963E-01  3.072660778469E-02  4.083387266415E-01
     13 T   8 O     3.289802334482E-01  3.228973188172E-01  1.999466553764E-01
     14 F   8 O    -3.289802334482E-01 -1.771026811828E-01 -1.999466553764E-01
     15 T   8 O    -3.326155905732E-01 -1.771026811828E-01 -2.027793346101E-01
     16 F   8 O     3.326155905732E-01  3.228973188172E-01  2.027793346101E-01
     17 T   8 O    -4.470884821828E-01  3.125822899599E-01  1.222013925621E-01
     18 F   8 O     4.470884821828E-01 -1.874177100401E-01 -1.222013925621E-01
     19 T   8 O     4.434531250578E-01 -1.874177100401E-01 -1.250340717958E-01
     20 F   8 O    -4.434531250578E-01  3.125822899599E-01  1.250340717958E-01
     21 T   8 O    -3.707393733710E-01  2.862703048539E-01 -7.770160529857E-02
     22 F   8 O     3.707393733710E-01 -2.137296951461E-01  7.770160529857E-02
     23 T   8 O     3.671040162459E-01 -2.137296951461E-01  7.486892606486E-02
     24 F   8 O    -3.671040162459E-01  2.862703048539E-01 -7.486892606486E-02
     25 T   8 O     1.831145118405E-01 -2.099955045061E-01  2.801049124233E-01
     26 F   8 O    -1.831145118405E-01  2.900044954939E-01 -2.801049124233E-01
     27 T   8 O    -1.867498689655E-01  2.900044954939E-01 -2.829375916569E-01
     28 F   8 O     1.867498689655E-01 -2.099955045061E-01  2.829375916569E-01
     29 T   8 O     4.698495920316E-01 -1.895141861342E-01  3.929125348381E-01
     30 F   8 O    -4.698495920316E-01  3.104858138658E-01 -3.929125348381E-01
     31 T   8 O    -4.734849491566E-01  3.104858138658E-01 -3.957452140718E-01
     32 F   8 O     4.734849491566E-01 -1.895141861342E-01  3.957452140718E-01
     33 T   8 O     3.573565209247E-01 -1.642063929515E-01 -4.339661915864E-01
     34 F   8 O    -3.573565209247E-01  3.357936070485E-01  4.339661915864E-01
     35 T   8 O    -3.609918780497E-01  3.357936070485E-01  4.311335123527E-01
     36 F   8 O     3.609918780497E-01 -1.642063929515E-01 -4.311335123527E-01

 T = ATOM BELONGING TO THE ASYMMETRIC UNIT

 ****    2 SYMMOPS - TRANSLATORS IN FRACTIONAL UNITS
 **** MATRICES AND TRANSLATORS IN THE CRYSTALLOGRAPHIC REFERENCE FRAME
   V INV                    ROTATION MATRICES                   TRANSLATORS
   1   1  1.00  0.00  0.00  0.00  1.00  0.00  0.00  0.00  1.00  0.00  0.00  0.00
   2   2 -1.00  0.00 -0.00  0.00  1.00  0.00 -0.00  0.00 -1.00  0.00  0.50  0.00

 DIRECT LATTICE VECTORS CARTESIAN COMPONENTS (ANGSTROM)
          X                    Y                    Z
   0.109764466547E+02   0.000000000000E+00  -0.764612970000E-02
   0.000000000000E+00   0.440282244096E+01  -0.000000000000E+00
  -0.549849310434E+01   0.000000000000E+00   0.956047597936E+01


 CARTESIAN COORDINATES - PRIMITIVE CELL
 *******************************************************************************
 *      ATOM          X(ANGSTROM)         Y(ANGSTROM)         Z(ANGSTROM)
 *******************************************************************************
    1    12 MG    4.179285860002E+00  2.508266145151E+00  2.411733701661E+00
    2    12 MG   -4.179285860002E+00  3.068549246710E-01 -2.411733701661E+00
    3    12 MG    1.274339854038E+00  3.068549246710E-01  7.114042182641E+00
    4    12 MG    4.203613696322E+00 -1.894556295809E+00  2.438787667019E+00
    5    53 I     1.415188631971E+00  2.346900345734E+00  7.118961201690E-01
    6    53 I    -1.415188631971E+00  1.454891252540E-01 -7.118961201690E-01
    7    53 I     4.038437082069E+00  1.454891252540E-01  8.813879764132E+00
    8    53 I     1.439516468291E+00 -2.055922095226E+00  7.389500855280E-01
    9    53 I     1.412284712133E+00  1.352837982890E-01  3.874293859456E+00
   10    53 I    -1.412284712133E+00 -2.066127422191E+00 -3.874293859456E+00
   11    53 I     4.041341001907E+00  2.336695018769E+00  5.651482024846E+00
   12    53 I     1.436612548453E+00  1.352837982890E-01  3.901347824814E+00
   13     8 O     2.511628677072E+00  1.421659561414E+00  1.909069770346E+00
   14     8 O    -2.511628677072E+00 -7.797516590660E-01 -1.909069770346E+00
   15     8 O     2.941997036968E+00  3.623070781894E+00  7.616706113955E+00
   16     8 O     2.535956513392E+00  1.421659561414E+00  1.936123735705E+00
   17     8 O     5.397080265746E+00  1.376244320882E+00  1.164075845056E+00
   18     8 O    -5.397080265746E+00 -8.251668995980E-01 -1.164075845056E+00
   19     8 O     5.654544829400E-02  3.577655541362E+00  8.361700039245E+00
   20     8 O     5.421408102066E+00  1.376244320882E+00  1.191129810415E+00
   21     8 O     1.835794336687E+00  1.260397322391E+00  8.812800239979E+00
   22     8 O     3.642159213673E+00 -9.410138980890E-01  7.400296096810E-01
   23     8 O     3.617831377352E+00  3.461808542871E+00  7.129756443220E-01
   24     8 O    -3.617831377352E+00  1.260397322391E+00 -7.129756443220E-01
   25     8 O     4.697917414680E-01  3.478249521220E+00  2.676536169616E+00
   26     8 O    -4.697917414680E-01  1.276838300740E+00 -2.676536169616E+00
   27     8 O     4.983833972572E+00  1.276838300740E+00  6.849239714686E+00
   28     8 O     4.941195777880E-01 -9.245729197400E-01  2.703590134974E+00
   29     8 O     2.996852119251E+00  3.568425129368E+00  3.752838320389E+00
   30     8 O    -2.996852119251E+00  1.367013908888E+00 -3.752838320389E+00
   31     8 O     2.456773594789E+00  1.367013908888E+00  5.772937563912E+00
   32     8 O     3.021179955571E+00 -8.343973115920E-01  3.779892285748E+00
   33     8 O     8.101717962530E-01  3.679850849124E+00  5.408820234536E+00
   34     8 O    -8.101717962530E-01  1.478439628644E+00 -5.408820234536E+00
   35     8 O     4.643453917787E+00  1.478439628644E+00  4.116955649765E+00
   36     8 O     8.344996325730E-01 -7.229715918360E-01  5.435874199895E+00
 WARNING **** CRYSTA **** TESTGEOM  DIRECTIVE - GEOMETRY EDITING COMPLETE
 TTTTTTTTTTTTTTTTTTTTTTTTTTTTTT END         TELAPSE        0.02 TCPU        0.02
 EEEEEEEEEE TERMINATION  DATE 31 07 2025 TIME 15:14:24.7
