
         
 *******************************************************************************
 *                                                                             *
 *                               CRYSTAL23                                     *
 *                      public : 1.0.1 - October 2022                          *
 *                       HTTP://WWW.CRYSTAL.UNITO.IT                           *
 *                                                                             *
 *                              MAIN AUTHORS                                   *
 *                                                                             *
 *  R. DOVESI(1,11), V.R. SAUNDERS(2), C. ROETTI(1,11), R. ORLANDO(1,11),      *
 *  C.M. ZICOVICH-WILSON(1,3), F. PASCALE(4), B. CIVALLERI(1,11),              *
 *  K. DOLL(5), N.M. HARRISON(6), I.J. BUSH(7), Ph. D'ARCO(8),                 *
 *  M. LLUNELL(9), M. CAUSA'(10), Y. NOEL(8), L. MASCHIO(1,11), A. ERBA(1,11)  *
 *  M. RE'RAT(14), S. CASASSA(1,11), B.G. SEARLE(2), J.K. DESMARAIS(1)         *
 *                                                                             *
 *        CONTRIBUTIONS TO THE CODE HAVE ALSO BEEN GIVEN BY                    *
 *                                                                             *
 *  M. FERRABONE(1,11), M. DE LA PIERRE(1,11), M. FERRERO(1,11),               *
 *  J. BAIMA(1,11), E. ALBANESE(1,11), M.F. PEINTINGER(12), R. BAST(13),       *
 *  B. KIRTMAN(15), V. LACIVITA(1,11), R. DEMICHELIS(1,16)                     *
 *  G. BRANDEBURG(17), S. SALUSTRO(1,11), G. SANSONE(1,11)                     *
 *  M.T. RUGGIERO(18), L.E. DAGA(1), L. DONA'(1), A. COSSARD(1)                *
 *                                                                             *
 * (1) THEORETICAL CHEMISTRY GROUP - UNIVERSITA' DI TORINO - TORINO (ITALY)    *
 * (2) SCIENTIFIC COMPUTING DEPARTMENT - STFC DARESBURY (UK)                   *
 * (3) UNIVERSIDAD AUTONOMA DEL ESTADO DE MORELOS - CUERNAVACA (MEXICO)        *
 * (4) UNIVERSITE' DE LORRAINE - NANCY (FRANCE)                                *
 * (5) UNIVERSITAET STUTTGART- STUTTGART (GERMANY)                             *
 * (6) IMPERIAL COLLEGE - LONDON (UK)                                          *
 * (7) SCIENTIFIC COMPUTING DEPARTMENT - STFC RAL (UK)                         *
 * (8) UPMC - SORBONNE UNIVERSITES - PARIS (FRANCE)                            *
 * (9) UNIVERSIDAD DE BARCELONA - BARCELONA (SPAIN)                            *
 *(10) UNIVERSITA' DI NAPOLI "FEDERICO II" - NAPOLI (ITALY)                    *
 *(11) NIS - NANOSTRUCTURED INTERFACES AND SURFACES - TORINO (ITALY)           *
 *(12) MPI FUER CHEMISCHE ENERGIEKONVERSION - MUELHEIM AN DER RUHR (GERMANY)   *
 *(13) UNIVERSITY OF TROMSO - TROMSO (NORWAY)                                  *
 *(14) UNIVERSITE' DE PAU ET DES PAYS DE L'ADOUR - PAU (FRANCE)                *
 *(15) UNIVERSITY OF CALIFORNIA SANTA BARBARA - SANTA BARBARA (USA)            *
 *(16) CURTIN UNIVERSITY - PERTH (AUSTRALIA)                                   *
 *(17) UNIVERSITY COLLEGE LONDON - LONDON (UK)                                 *
 *(18) UNIVERSITY OF VERMONT - BURLINGTON (USA)                                *
 *                                                                             *
 *******************************************************************************
 EEEEEEEEEE STARTING  DATE 31 07 2025 TIME 15:14:24.7
 Check                                                                           
 filename=fort.34                        0           0

 GEOMETRY INPUT FROM EXTERNAL FILE (FORTRAN UNIT 34)
 3D - CRYSTAL 

 *******************************************************************************
 LATTICE PARAMETERS  (ANGSTROMS AND DEGREES) - PRIMITIVE CELL
       A          B          C        ALPHA      BETA     GAMMA        VOLUME
   11.01243    4.26920   11.05268    90.00000 119.97404  90.00000    450.133202
 INFORMATION **** CHKGRP **** SPGR WITH NO INVERSION

 NUMBER OF IRREDUCIBLE ATOMS IN THE CELL:   18

 CARTESIAN COORDINATES (ANGSTROM) - IRREDUCIBLE ATOMS AND SYMMETRY RELATED

 AT.IRR.  AT  AT.N.          X                   Y                   Z
     1     1    12    4.181357685685E+00  2.425175731445E+00  2.414384649021E+00
     1     2    12   -4.181357685685E+00  2.905777965400E-01 -2.414384649021E+00
     3     3    12    1.296874179729E+00  2.905777965400E-01  7.138759419310E+00
     3     4    12    4.194334699121E+00 -1.844020138365E+00  2.435197237623E+00
     5     5    53    1.411931537534E+00  2.308365597681E+00  7.255867436750E-01
     5     6    53   -1.411931537534E+00  1.737676627760E-01 -7.255867436750E-01
     7     7    53    4.066300327881E+00  1.737676627760E-01  8.827557324656E+00
     7     8    53    1.424908550969E+00 -1.960830272129E+00  7.463993322770E-01
     9     9    53    1.411069745893E+00  1.677802078490E-01  3.899571296279E+00
     9    10    53   -1.411069745893E+00 -1.966817727056E+00 -3.899571296279E+00
    11    11    53    4.067162119521E+00  2.302378142754E+00  5.653572772052E+00
    11    12    53    1.424046759329E+00  1.677802078490E-01  3.920383884881E+00
    13    13     8    2.500199434703E+00  1.359421558979E+00  1.914500769509E+00
    13    14     8   -2.500199434703E+00 -7.751763759260E-01 -1.914500769509E+00
    15    15     8    2.978032430711E+00  3.494019493884E+00  7.638643298822E+00
    15    16     8    2.513176448139E+00  1.359421558979E+00  1.935313358111E+00
    17    17     8    5.410643461271E+00  1.319006401591E+00  1.159407757450E+00
    17    18     8   -5.410643461271E+00 -8.155915333140E-01 -1.159407757450E+00
    19    19     8    6.758840414300E-02  3.453604336496E+00  8.393736310882E+00
    19    20     8    5.423620474707E+00  1.319006401591E+00  1.180220346051E+00
    21    21     8    1.848571127299E+00  1.224457777839E+00  8.851868721126E+00
    21    22     8    3.642637751551E+00 -9.101401570660E-01  7.220879358070E-01
    23    23     8    3.629660738115E+00  3.359055712744E+00  7.012753472060E-01
    23    24     8   -3.629660738115E+00  1.224457777839E+00 -7.012753472060E-01
    25    25     8    4.613925260100E-01  3.374771377852E+00  2.709316049765E+00
    25    26     8   -4.613925260100E-01  1.240173442947E+00 -2.709316049765E+00
    27    27     8    5.016839339404E+00  1.240173442947E+00  6.843828018566E+00
    27    28     8    4.743695394460E-01 -8.944244919580E-01  2.730128638367E+00
    29    29     8    2.985415984410E+00  3.453342573267E+00  3.752273663630E+00
    29    30     8   -2.985415984410E+00  1.318744638362E+00 -3.752273663630E+00
    31    31     8    2.492815881004E+00  1.318744638362E+00  5.800870404701E+00
    31    32     8    2.998392997846E+00 -8.158532965430E-01  3.773086252232E+00
    33    33     8    8.314617265850E-01  3.542772022749E+00  5.425610716281E+00
    33    34     8   -8.314617265850E-01  1.408174087844E+00 -5.425610716281E+00
    35    35     8    4.646770138830E+00  1.408174087844E+00  4.127533352050E+00
    35    36     8    8.444387400200E-01 -7.264238470610E-01  5.446423304883E+00

 SPACE  GROUP  N.                     :    4
 NUMBER OF SYMMETRY OPERATORS         :    2
 *******************************************************************************
 LATTICE PARAMETERS (ANGSTROMS AND DEGREES) - BOHR = 0.5291772083 ANGSTROM
 PRIMITIVE CELL - CENTRING CODE 1/0 VOLUME=   450.133202 - DENSITY  5.515 g/cm^3
         A              B              C           ALPHA      BETA       GAMMA 
    11.01242870     4.26919587    11.05268229    90.000000 119.974042  90.000000
 *******************************************************************************
 ATOMS IN THE ASYMMETRIC UNIT   18 - ATOMS IN THE UNIT CELL:   36
     ATOM                 X/A                 Y/B                 Z/C    
 *******************************************************************************
      1 T  12 MG   -4.938586992705E-01 -4.319361759448E-01  2.522064575360E-01
      2 F  12 MG    4.938586992705E-01  6.806382405522E-02 -2.522064575360E-01
      3 T  12 MG    4.915903979691E-01  6.806382405522E-02 -2.543803418045E-01
      4 F  12 MG   -4.915903979691E-01 -4.319361759448E-01  2.543803418045E-01
      5 T  53 I     1.662138625394E-01 -4.592973318454E-01  7.579607101578E-02
      6 F  53 I    -1.662138625394E-01  4.070266815463E-02 -7.579607101578E-02
      7 T  53 I    -1.684821638406E-01  4.070266815463E-02 -7.796995528433E-02
      8 F  53 I     1.684821638406E-01 -4.592973318454E-01  7.796995528433E-02
      9 T  53 I     3.323409060627E-01  3.930018977004E-02  4.073032520943E-01
     10 F  53 I    -3.323409060627E-01 -4.606998102300E-01 -4.073032520943E-01
     11 T  53 I    -3.346092073640E-01 -4.606998102300E-01 -4.094771363628E-01
     12 F  53 I     3.346092073640E-01  3.930018977004E-02  4.094771363628E-01
     13 T   8 O     3.272976526734E-01  3.184256708839E-01  1.999816454729E-01
     14 F   8 O    -3.272976526734E-01 -1.815743291161E-01 -1.999816454729E-01
     15 T   8 O    -3.295659539747E-01 -1.815743291161E-01 -2.021555297414E-01
     16 F   8 O     3.295659539747E-01  3.184256708839E-01  2.021555297414E-01
     17 T   8 O    -4.479430074115E-01  3.089589800549E-01  1.211407651633E-01
     18 F   8 O     4.479430074115E-01 -1.910410199451E-01 -1.211407651633E-01
     19 T   8 O     4.456747061102E-01 -1.910410199451E-01 -1.233146494317E-01
     20 F   8 O    -4.456747061102E-01  3.089589800549E-01  1.233146494317E-01
     21 T   8 O    -3.686028181549E-01  2.868122745311E-01 -7.544972050540E-02
     22 F   8 O     3.686028181549E-01 -2.131877254689E-01  7.544972050540E-02
     23 T   8 O     3.663345168536E-01 -2.131877254689E-01  7.327583623696E-02
     24 F   8 O    -3.663345168536E-01  2.868122745311E-01 -7.327583623696E-02
     25 T   8 O     1.837724105190E-01 -2.095065485945E-01  2.829787792794E-01
     26 F   8 O    -1.837724105190E-01  2.904934514055E-01 -2.829787792794E-01
     27 T   8 O    -1.860407118204E-01  2.904934514055E-01 -2.851526635479E-01
     28 F   8 O     1.860407118204E-01 -2.095065485945E-01  2.851526635479E-01
     29 T   8 O     4.675952931888E-01 -1.911023343558E-01  3.919322015597E-01
     30 F   8 O    -4.675952931888E-01  3.088976656442E-01 -3.919322015597E-01
     31 T   8 O    -4.698635944902E-01  3.088976656442E-01 -3.941060858282E-01
     32 F   8 O     4.698635944902E-01 -1.911023343558E-01  3.941060858282E-01
     33 T   8 O     3.596171130558E-01 -1.701547244993E-01 -4.333143402352E-01
     34 F   8 O    -3.596171130558E-01  3.298452755007E-01  4.333143402352E-01
     35 T   8 O    -3.618854143571E-01  3.298452755007E-01  4.311404559667E-01
     36 F   8 O     3.618854143571E-01 -1.701547244993E-01 -4.311404559667E-01

 T = ATOM BELONGING TO THE ASYMMETRIC UNIT
 *******************************************************************************
 * GEOMETRY EDITING - INPUT COORDINATES ARE GIVEN IN ANGSTROM         
 *******************************************************************************

 GEOMETRY NOW FULLY CONSISTENT WITH THE GROUP

 GCALCO - MAX INDICES DIRECT LATTICE VECTOR    11    25    11
 NO.OF VECTORS CREATED 6999 STARS 1824 RMAX   171.27918 BOHR

 GEOMETRY FOR WAVE FUNCTION - DIMENSIONALITY OF THE SYSTEM    3
 (NON PERIODIC DIRECTION: LATTICE PARAMETER FORMALLY SET TO 500)
 *******************************************************************************
 LATTICE PARAMETERS (ANGSTROMS AND DEGREES) - BOHR = 0.5291772083 ANGSTROM
 PRIMITIVE CELL - CENTRING CODE 1/0 VOLUME=   450.133202 - DENSITY  5.515 g/cm^3
         A              B              C           ALPHA      BETA       GAMMA 
    11.01242870     4.26919587    11.05268229    90.000000 119.974042  90.000000
 *******************************************************************************
 ATOMS IN THE ASYMMETRIC UNIT   18 - ATOMS IN THE UNIT CELL:   36
     ATOM                 X/A                 Y/B                 Z/C    
 *******************************************************************************
      1 T  12 MG   -4.938586992705E-01 -4.319361759448E-01  2.522064575360E-01
      2 F  12 MG    4.938586992705E-01  6.806382405522E-02 -2.522064575360E-01
      3 T  12 MG    4.915903979691E-01  6.806382405522E-02 -2.543803418045E-01
      4 F  12 MG   -4.915903979691E-01 -4.319361759448E-01  2.543803418045E-01
      5 T  53 I     1.662138625394E-01 -4.592973318454E-01  7.579607101578E-02
      6 F  53 I    -1.662138625394E-01  4.070266815463E-02 -7.579607101578E-02
      7 T  53 I    -1.684821638406E-01  4.070266815463E-02 -7.796995528433E-02
      8 F  53 I     1.684821638406E-01 -4.592973318454E-01  7.796995528433E-02
      9 T  53 I     3.323409060627E-01  3.930018977004E-02  4.073032520943E-01
     10 F  53 I    -3.323409060627E-01 -4.606998102300E-01 -4.073032520943E-01
     11 T  53 I    -3.346092073640E-01 -4.606998102300E-01 -4.094771363628E-01
     12 F  53 I     3.346092073640E-01  3.930018977004E-02  4.094771363628E-01
     13 T   8 O     3.272976526734E-01  3.184256708839E-01  1.999816454729E-01
     14 F   8 O    -3.272976526734E-01 -1.815743291161E-01 -1.999816454729E-01
     15 T   8 O    -3.295659539747E-01 -1.815743291161E-01 -2.021555297414E-01
     16 F   8 O     3.295659539747E-01  3.184256708839E-01  2.021555297414E-01
     17 T   8 O    -4.479430074115E-01  3.089589800549E-01  1.211407651633E-01
     18 F   8 O     4.479430074115E-01 -1.910410199451E-01 -1.211407651633E-01
     19 T   8 O     4.456747061102E-01 -1.910410199451E-01 -1.233146494317E-01
     20 F   8 O    -4.456747061102E-01  3.089589800549E-01  1.233146494317E-01
     21 T   8 O    -3.686028181549E-01  2.868122745311E-01 -7.544972050540E-02
     22 F   8 O     3.686028181549E-01 -2.131877254689E-01  7.544972050540E-02
     23 T   8 O     3.663345168536E-01 -2.131877254689E-01  7.327583623696E-02
     24 F   8 O    -3.663345168536E-01  2.868122745311E-01 -7.327583623696E-02
     25 T   8 O     1.837724105190E-01 -2.095065485945E-01  2.829787792794E-01
     26 F   8 O    -1.837724105190E-01  2.904934514055E-01 -2.829787792794E-01
     27 T   8 O    -1.860407118204E-01  2.904934514055E-01 -2.851526635479E-01
     28 F   8 O     1.860407118204E-01 -2.095065485945E-01  2.851526635479E-01
     29 T   8 O     4.675952931888E-01 -1.911023343558E-01  3.919322015597E-01
     30 F   8 O    -4.675952931888E-01  3.088976656442E-01 -3.919322015597E-01
     31 T   8 O    -4.698635944902E-01  3.088976656442E-01 -3.941060858282E-01
     32 F   8 O     4.698635944902E-01 -1.911023343558E-01  3.941060858282E-01
     33 T   8 O     3.596171130558E-01 -1.701547244993E-01 -4.333143402352E-01
     34 F   8 O    -3.596171130558E-01  3.298452755007E-01  4.333143402352E-01
     35 T   8 O    -3.618854143571E-01  3.298452755007E-01  4.311404559667E-01
     36 F   8 O     3.618854143571E-01 -1.701547244993E-01 -4.311404559667E-01

 T = ATOM BELONGING TO THE ASYMMETRIC UNIT

 ****    2 SYMMOPS - TRANSLATORS IN FRACTIONAL UNITS
 **** MATRICES AND TRANSLATORS IN THE CRYSTALLOGRAPHIC REFERENCE FRAME
   V INV                    ROTATION MATRICES                   TRANSLATORS
   1   1  1.00  0.00  0.00  0.00  1.00  0.00  0.00  0.00  1.00  0.00  0.00  0.00
   2   2 -1.00  0.00 -0.00  0.00  1.00  0.00  0.00  0.00 -1.00  0.00  0.50  0.00

 DIRECT LATTICE VECTORS CARTESIAN COMPONENTS (ANGSTROM)
          X                    Y                    Z
   0.110124286671E+02   0.000000000000E+00  -0.901979517000E-03
   0.000000000000E+00   0.426919586981E+01  -0.000000000000E+00
  -0.552121978825E+01   0.000000000000E+00   0.957485863645E+01


 CARTESIAN COORDINATES - PRIMITIVE CELL
 *******************************************************************************
 *      ATOM          X(ANGSTROM)         Y(ANGSTROM)         Z(ANGSTROM)
 *******************************************************************************
    1    12 MG    4.181357685685E+00  2.425175731445E+00  2.414384649021E+00
    2    12 MG   -4.181357685685E+00  2.905777965400E-01 -2.414384649021E+00
    3    12 MG    1.296874179729E+00  2.905777965400E-01  7.138759419310E+00
    4    12 MG    4.194334699121E+00 -1.844020138365E+00  2.435197237623E+00
    5    53 I     1.411931537534E+00  2.308365597681E+00  7.255867436750E-01
    6    53 I    -1.411931537534E+00  1.737676627760E-01 -7.255867436750E-01
    7    53 I     4.066300327881E+00  1.737676627760E-01  8.827557324656E+00
    8    53 I     1.424908550969E+00 -1.960830272129E+00  7.463993322770E-01
    9    53 I     1.411069745893E+00  1.677802078490E-01  3.899571296279E+00
   10    53 I    -1.411069745893E+00 -1.966817727056E+00 -3.899571296279E+00
   11    53 I     4.067162119521E+00  2.302378142754E+00  5.653572772052E+00
   12    53 I     1.424046759329E+00  1.677802078490E-01  3.920383884881E+00
   13     8 O     2.500199434703E+00  1.359421558979E+00  1.914500769509E+00
   14     8 O    -2.500199434703E+00 -7.751763759260E-01 -1.914500769509E+00
   15     8 O     2.978032430711E+00  3.494019493884E+00  7.638643298822E+00
   16     8 O     2.513176448139E+00  1.359421558979E+00  1.935313358111E+00
   17     8 O     5.410643461271E+00  1.319006401591E+00  1.159407757450E+00
   18     8 O    -5.410643461271E+00 -8.155915333140E-01 -1.159407757450E+00
   19     8 O     6.758840414300E-02  3.453604336496E+00  8.393736310882E+00
   20     8 O     5.423620474707E+00  1.319006401591E+00  1.180220346051E+00
   21     8 O     1.848571127299E+00  1.224457777839E+00  8.851868721126E+00
   22     8 O     3.642637751551E+00 -9.101401570660E-01  7.220879358070E-01
   23     8 O     3.629660738115E+00  3.359055712744E+00  7.012753472060E-01
   24     8 O    -3.629660738115E+00  1.224457777839E+00 -7.012753472060E-01
   25     8 O     4.613925260100E-01  3.374771377852E+00  2.709316049765E+00
   26     8 O    -4.613925260100E-01  1.240173442947E+00 -2.709316049765E+00
   27     8 O     5.016839339404E+00  1.240173442947E+00  6.843828018566E+00
   28     8 O     4.743695394460E-01 -8.944244919580E-01  2.730128638367E+00
   29     8 O     2.985415984410E+00  3.453342573267E+00  3.752273663630E+00
   30     8 O    -2.985415984410E+00  1.318744638362E+00 -3.752273663630E+00
   31     8 O     2.492815881004E+00  1.318744638362E+00  5.800870404701E+00
   32     8 O     2.998392997846E+00 -8.158532965430E-01  3.773086252232E+00
   33     8 O     8.314617265850E-01  3.542772022749E+00  5.425610716281E+00
   34     8 O    -8.314617265850E-01  1.408174087844E+00 -5.425610716281E+00
   35     8 O     4.646770138830E+00  1.408174087844E+00  4.127533352050E+00
   36     8 O     8.444387400200E-01 -7.264238470610E-01  5.446423304883E+00
 WARNING **** CRYSTA **** TESTGEOM  DIRECTIVE - GEOMETRY EDITING COMPLETE
 TTTTTTTTTTTTTTTTTTTTTTTTTTTTTT END         TELAPSE        0.02 TCPU        0.02
 EEEEEEEEEE TERMINATION  DATE 31 07 2025 TIME 15:14:24.7
