
         
 *******************************************************************************
 *                                                                             *
 *                               CRYSTAL23                                     *
 *                      public : 1.0.1 - October 2022                          *
 *                       HTTP://WWW.CRYSTAL.UNITO.IT                           *
 *                                                                             *
 *                              MAIN AUTHORS                                   *
 *                                                                             *
 *  R. DOVESI(1,11), V.R. SAUNDERS(2), C. ROETTI(1,11), R. ORLANDO(1,11),      *
 *  C.M. ZICOVICH-WILSON(1,3), F. PASCALE(4), B. CIVALLERI(1,11),              *
 *  K. DOLL(5), N.M. HARRISON(6), I.J. BUSH(7), Ph. D'ARCO(8),                 *
 *  M. LLUNELL(9), M. CAUSA'(10), Y. NOEL(8), L. MASCHIO(1,11), A. ERBA(1,11)  *
 *  M. RE'RAT(14), S. CASASSA(1,11), B.G. SEARLE(2), J.K. DESMARAIS(1)         *
 *                                                                             *
 *        CONTRIBUTIONS TO THE CODE HAVE ALSO BEEN GIVEN BY                    *
 *                                                                             *
 *  M. FERRABONE(1,11), M. DE LA PIERRE(1,11), M. FERRERO(1,11),               *
 *  J. BAIMA(1,11), E. ALBANESE(1,11), M.F. PEINTINGER(12), R. BAST(13),       *
 *  B. KIRTMAN(15), V. LACIVITA(1,11), R. DEMICHELIS(1,16)                     *
 *  G. BRANDEBURG(17), S. SALUSTRO(1,11), G. SANSONE(1,11)                     *
 *  M.T. RUGGIERO(18), L.E. DAGA(1), L. DONA'(1), A. COSSARD(1)                *
 *                                                                             *
 * (1) THEORETICAL CHEMISTRY GROUP - UNIVERSITA' DI TORINO - TORINO (ITALY)    *
 * (2) SCIENTIFIC COMPUTING DEPARTMENT - STFC DARESBURY (UK)                   *
 * (3) UNIVERSIDAD AUTONOMA DEL ESTADO DE MORELOS - CUERNAVACA (MEXICO)        *
 * (4) UNIVERSITE' DE LORRAINE - NANCY (FRANCE)                                *
 * (5) UNIVERSITAET STUTTGART- STUTTGART (GERMANY)                             *
 * (6) IMPERIAL COLLEGE - LONDON (UK)                                          *
 * (7) SCIENTIFIC COMPUTING DEPARTMENT - STFC RAL (UK)                         *
 * (8) UPMC - SORBONNE UNIVERSITES - PARIS (FRANCE)                            *
 * (9) UNIVERSIDAD DE BARCELONA - BARCELONA (SPAIN)                            *
 *(10) UNIVERSITA' DI NAPOLI "FEDERICO II" - NAPOLI (ITALY)                    *
 *(11) NIS - NANOSTRUCTURED INTERFACES AND SURFACES - TORINO (ITALY)           *
 *(12) MPI FUER CHEMISCHE ENERGIEKONVERSION - MUELHEIM AN DER RUHR (GERMANY)   *
 *(13) UNIVERSITY OF TROMSO - TROMSO (NORWAY)                                  *
 *(14) UNIVERSITE' DE PAU ET DES PAYS DE L'ADOUR - PAU (FRANCE)                *
 *(15) UNIVERSITY OF CALIFORNIA SANTA BARBARA - SANTA BARBARA (USA)            *
 *(16) CURTIN UNIVERSITY - PERTH (AUSTRALIA)                                   *
 *(17) UNIVERSITY COLLEGE LONDON - LONDON (UK)                                 *
 *(18) UNIVERSITY OF VERMONT - BURLINGTON (USA)                                *
 *                                                                             *
 *******************************************************************************
 EEEEEEEEEE STARTING  DATE 31 07 2025 TIME 15:14:24.7
 Check                                                                           
 filename=fort.34                        0           0

 GEOMETRY INPUT FROM EXTERNAL FILE (FORTRAN UNIT 34)
 3D - CRYSTAL 

 *******************************************************************************
 LATTICE PARAMETERS  (ANGSTROMS AND DEGREES) - PRIMITIVE CELL
       A          B          C        ALPHA      BETA     GAMMA        VOLUME
   11.04465    4.13742   11.07432    90.00000 119.98741  90.00000    438.312810
 INFORMATION **** CHKGRP **** SPGR WITH NO INVERSION

 NUMBER OF IRREDUCIBLE ATOMS IN THE CELL:   18

 CARTESIAN COORDINATES (ANGSTROM) - IRREDUCIBLE ATOMS AND SYMMETRY RELATED

 AT.IRR.  AT  AT.N.          X                   Y                   Z
     1     1    12    4.184093085082E+00  2.343302897261E+00  2.415998658604E+00
     1     2    12   -4.184093085082E+00  2.745936618310E-01 -2.415998658604E+00
     3     3    12    1.317060728157E+00  2.745936618310E-01  7.161145108821E+00
     3     4    12    4.188337378413E+00 -1.794115573599E+00  2.433124696615E+00
     5     5    53    1.410245257384E+00  2.274077145237E+00  7.383333324920E-01
     5     6    53   -1.410245257384E+00  2.053679098070E-01 -7.383333324920E-01
     7     7    53    4.090908555854E+00  2.053679098070E-01  8.838810434933E+00
     7     8    53    1.414489550716E+00 -1.863341325623E+00  7.554593705030E-01
     9     9    53    1.409941085310E+00  2.017025133040E-01  3.922576467921E+00
     9    10    53   -1.409941085310E+00 -1.867006722126E+00 -3.922576467921E+00
    11    11    53    4.091212727929E+00  2.270411748734E+00  5.654567299503E+00
    11    12    53    1.414185378641E+00  2.017025133040E-01  3.939702505933E+00
    13    13     8    2.486751801435E+00  1.298947307148E+00  1.921683906577E+00
    13    14     8   -2.486751801435E+00 -7.697619282820E-01 -1.921683906577E+00
    15    15     8    3.014402011804E+00  3.367656542578E+00  7.655459860848E+00
    15    16     8    2.490996094766E+00  1.298947307148E+00  1.938809944588E+00
    17    17     8    5.424293502880E+00  1.264959257522E+00  1.150650762378E+00
    17    18     8   -5.424293502880E+00 -8.037499779080E-01 -1.150650762378E+00
    19    19     8    7.686031035800E-02  3.333668492952E+00  8.426493005046E+00
    19    20     8    5.428537796212E+00  1.264959257522E+00  1.167776800390E+00
    21    21     8    1.863342044053E+00  1.184879573535E+00  8.890548714938E+00
    21    22     8    3.642056062517E+00 -8.838296618950E-01  7.037210904980E-01
    23    23     8    3.637811769186E+00  3.253588808965E+00  6.865950524870E-01
    23    24     8   -3.637811769186E+00  1.184879573535E+00 -6.865950524870E-01
    25    25     8    4.555324011640E-01  3.270167302395E+00  2.738400019080E+00
    25    26     8   -4.555324011640E-01  1.201458066965E+00 -2.738400019080E+00
    27    27     8    5.045621412074E+00  1.201458066965E+00  6.838743748345E+00
    27    28     8    4.597766944960E-01 -8.672511684650E-01  2.755526057091E+00
    29    29     8    2.971964273194E+00  3.335628795401E+00  3.754918731659E+00
    29    30     8   -2.971964273194E+00  1.266919559971E+00 -3.754918731659E+00
    31    31     8    2.529189540045E+00  1.266919559971E+00  5.822225035765E+00
    31    32     8    2.976208566525E+00 -8.017896754590E-01  3.772044769671E+00
    33    33     8    8.458032804980E-01  3.409550270064E+00  5.438166383827E+00
    33    34     8   -8.458032804980E-01  1.340841034634E+00 -5.438166383827E+00
    35    35     8    4.655350532741E+00  1.340841034634E+00  4.138977383597E+00
    35    36     8    8.500475738290E-01 -7.278682007960E-01  5.455292421839E+00

 SPACE  GROUP  N.                     :    4
 NUMBER OF SYMMETRY OPERATORS         :    2
 *******************************************************************************
 LATTICE PARAMETERS (ANGSTROMS AND DEGREES) - BOHR = 0.5291772083 ANGSTROM
 PRIMITIVE CELL - CENTRING CODE 1/0 VOLUME=   438.312810 - DENSITY  5.664 g/cm^3
         A              B              C           ALPHA      BETA       GAMMA 
    11.04465373     4.13741847    11.07431529    90.000000 119.987407  90.000000
 *******************************************************************************
 ATOMS IN THE ASYMMETRIC UNIT   18 - ATOMS IN THE UNIT CELL:   36
     ATOM                 X/A                 Y/B                 Z/C    
 *******************************************************************************
      1 T  12 MG   -4.949354743460E-01 -4.336316440396E-01  2.516889520757E-01
      2 F  12 MG    4.949354743460E-01  6.636835596036E-02 -2.516889520757E-01
      3 T  12 MG    4.936558116393E-01  6.636835596036E-02 -2.534742350387E-01
      4 F  12 MG   -4.936558116393E-01 -4.336316440396E-01  2.534742350387E-01
      5 T  53 I     1.662589569565E-01 -4.503632733180E-01  7.691056088392E-02
      6 F  53 I    -1.662589569565E-01  4.963672668197E-02 -7.691056088392E-02
      7 T  53 I    -1.675386196633E-01  4.963672668197E-02 -7.869584384686E-02
      8 F  53 I     1.675386196633E-01 -4.503632733180E-01  7.869584384686E-02
      9 T  53 I     3.327270506295E-01  4.875081278933E-02  4.088841913613E-01
     10 F  53 I    -3.327270506295E-01 -4.512491872107E-01 -4.088841913613E-01
     11 T  53 I    -3.340067133362E-01 -4.512491872107E-01 -4.106694743244E-01
     12 F  53 I     3.340067133362E-01  4.875081278933E-02  4.106694743244E-01
     13 T   8 O     3.255771146392E-01  3.139511548799E-01  2.002316979983E-01
     14 F   8 O    -3.255771146392E-01 -1.860488451201E-01 -2.002316979983E-01
     15 T   8 O    -3.268567773459E-01 -1.860488451201E-01 -2.020169809613E-01
     16 F   8 O     3.268567773459E-01  3.139511548799E-01  2.020169809613E-01
     17 T   8 O    -4.488359193412E-01  3.057363586573E-01  1.197132798247E-01
     18 F   8 O     4.488359193412E-01 -1.942636413427E-01 -1.197132798247E-01
     19 T   8 O     4.475562566344E-01 -1.942636413427E-01 -1.214985627878E-01
     20 F   8 O    -4.475562566344E-01  3.057363586573E-01  1.214985627878E-01
     21 T   8 O    -3.664696261798E-01  2.863813708669E-01 -7.320004301844E-02
     22 F   8 O     3.664696261798E-01 -2.136186291331E-01  7.320004301844E-02
     23 T   8 O     3.651899634732E-01 -2.136186291331E-01  7.141476005551E-02
     24 F   8 O    -3.651899634732E-01  2.863813708669E-01 -7.141476005551E-02
     25 T   8 O     1.844178408799E-01 -2.096116635465E-01  2.854713715609E-01
     26 F   8 O    -1.844178408799E-01  2.903883364535E-01 -2.854713715609E-01
     27 T   8 O    -1.856975035867E-01  2.903883364535E-01 -2.872566545239E-01
     28 F   8 O     1.856975035867E-01 -2.096116635465E-01  2.872566545239E-01
     29 T   8 O     4.653528678620E-01 -1.937898428950E-01  3.913336165370E-01
     30 F   8 O    -4.653528678620E-01  3.062101571050E-01 -3.913336165370E-01
     31 T   8 O    -4.666325305687E-01  3.062101571050E-01 -3.931188995000E-01
     32 F   8 O     4.666325305687E-01 -1.937898428950E-01  3.931188995000E-01
     33 T   8 O     3.609082470530E-01 -1.759232733944E-01 -4.330820296722E-01
     34 F   8 O    -3.609082470530E-01  3.240767266056E-01  4.330820296722E-01
     35 T   8 O    -3.621879097597E-01  3.240767266056E-01  4.312967467091E-01
     36 F   8 O     3.621879097597E-01 -1.759232733944E-01 -4.312967467091E-01

 T = ATOM BELONGING TO THE ASYMMETRIC UNIT
 *******************************************************************************
 * GEOMETRY EDITING - INPUT COORDINATES ARE GIVEN IN ANGSTROM         
 *******************************************************************************

 GEOMETRY NOW FULLY CONSISTENT WITH THE GROUP

 GCALCO - MAX INDICES DIRECT LATTICE VECTOR    11    25    11
 NO.OF VECTORS CREATED 6999 STARS 1821 RMAX   170.19346 BOHR

 GEOMETRY FOR WAVE FUNCTION - DIMENSIONALITY OF THE SYSTEM    3
 (NON PERIODIC DIRECTION: LATTICE PARAMETER FORMALLY SET TO 500)
 *******************************************************************************
 LATTICE PARAMETERS (ANGSTROMS AND DEGREES) - BOHR = 0.5291772083 ANGSTROM
 PRIMITIVE CELL - CENTRING CODE 1/0 VOLUME=   438.312810 - DENSITY  5.664 g/cm^3
         A              B              C           ALPHA      BETA       GAMMA 
    11.04465373     4.13741847    11.07431529    90.000000 119.987407  90.000000
 *******************************************************************************
 ATOMS IN THE ASYMMETRIC UNIT   18 - ATOMS IN THE UNIT CELL:   36
     ATOM                 X/A                 Y/B                 Z/C    
 *******************************************************************************
      1 T  12 MG   -4.949354743460E-01 -4.336316440396E-01  2.516889520757E-01
      2 F  12 MG    4.949354743460E-01  6.636835596036E-02 -2.516889520757E-01
      3 T  12 MG    4.936558116393E-01  6.636835596036E-02 -2.534742350387E-01
      4 F  12 MG   -4.936558116393E-01 -4.336316440396E-01  2.534742350387E-01
      5 T  53 I     1.662589569565E-01 -4.503632733180E-01  7.691056088392E-02
      6 F  53 I    -1.662589569565E-01  4.963672668197E-02 -7.691056088392E-02
      7 T  53 I    -1.675386196633E-01  4.963672668197E-02 -7.869584384686E-02
      8 F  53 I     1.675386196633E-01 -4.503632733180E-01  7.869584384686E-02
      9 T  53 I     3.327270506295E-01  4.875081278933E-02  4.088841913613E-01
     10 F  53 I    -3.327270506295E-01 -4.512491872107E-01 -4.088841913613E-01
     11 T  53 I    -3.340067133362E-01 -4.512491872107E-01 -4.106694743244E-01
     12 F  53 I     3.340067133362E-01  4.875081278933E-02  4.106694743244E-01
     13 T   8 O     3.255771146392E-01  3.139511548799E-01  2.002316979983E-01
     14 F   8 O    -3.255771146392E-01 -1.860488451201E-01 -2.002316979983E-01
     15 T   8 O    -3.268567773459E-01 -1.860488451201E-01 -2.020169809613E-01
     16 F   8 O     3.268567773459E-01  3.139511548799E-01  2.020169809613E-01
     17 T   8 O    -4.488359193412E-01  3.057363586573E-01  1.197132798247E-01
     18 F   8 O     4.488359193412E-01 -1.942636413427E-01 -1.197132798247E-01
     19 T   8 O     4.475562566344E-01 -1.942636413427E-01 -1.214985627878E-01
     20 F   8 O    -4.475562566344E-01  3.057363586573E-01  1.214985627878E-01
     21 T   8 O    -3.664696261798E-01  2.863813708669E-01 -7.320004301844E-02
     22 F   8 O     3.664696261798E-01 -2.136186291331E-01  7.320004301844E-02
     23 T   8 O     3.651899634732E-01 -2.136186291331E-01  7.141476005551E-02
     24 F   8 O    -3.651899634732E-01  2.863813708669E-01 -7.141476005551E-02
     25 T   8 O     1.844178408799E-01 -2.096116635465E-01  2.854713715609E-01
     26 F   8 O    -1.844178408799E-01  2.903883364535E-01 -2.854713715609E-01
     27 T   8 O    -1.856975035867E-01  2.903883364535E-01 -2.872566545239E-01
     28 F   8 O     1.856975035867E-01 -2.096116635465E-01  2.872566545239E-01
     29 T   8 O     4.653528678620E-01 -1.937898428950E-01  3.913336165370E-01
     30 F   8 O    -4.653528678620E-01  3.062101571050E-01 -3.913336165370E-01
     31 T   8 O    -4.666325305687E-01  3.062101571050E-01 -3.931188995000E-01
     32 F   8 O     4.666325305687E-01 -1.937898428950E-01  3.931188995000E-01
     33 T   8 O     3.609082470530E-01 -1.759232733944E-01 -4.330820296722E-01
     34 F   8 O    -3.609082470530E-01  3.240767266056E-01  4.330820296722E-01
     35 T   8 O    -3.621879097597E-01  3.240767266056E-01  4.312967467091E-01
     36 F   8 O     3.621879097597E-01 -1.759232733944E-01 -4.312967467091E-01

 T = ATOM BELONGING TO THE ASYMMETRIC UNIT

 ****    2 SYMMOPS - TRANSLATORS IN FRACTIONAL UNITS
 **** MATRICES AND TRANSLATORS IN THE CRYSTALLOGRAPHIC REFERENCE FRAME
   V INV                    ROTATION MATRICES                   TRANSLATORS
   1   1  1.00  0.00  0.00  0.00  1.00  0.00  0.00  0.00  1.00  0.00  0.00  0.00
   2   2 -1.00  0.00 -0.00  0.00  1.00  0.00 -0.00  0.00 -1.00  0.00  0.50  0.00

 DIRECT LATTICE VECTORS CARTESIAN COMPONENTS (ANGSTROM)
          X                    Y                    Z
   0.110446526686E+02   0.000000000000E+00   0.484239788600E-02
   0.000000000000E+00   0.413741847086E+01  -0.000000000000E+00
  -0.553925456203E+01   0.000000000000E+00   0.958942740755E+01


 CARTESIAN COORDINATES - PRIMITIVE CELL
 *******************************************************************************
 *      ATOM          X(ANGSTROM)         Y(ANGSTROM)         Z(ANGSTROM)
 *******************************************************************************
    1    12 MG    4.184093085082E+00  2.343302897261E+00  2.415998658604E+00
    2    12 MG   -4.184093085082E+00  2.745936618310E-01 -2.415998658604E+00
    3    12 MG    1.317060728157E+00  2.745936618310E-01  7.161145108821E+00
    4    12 MG    4.188337378413E+00 -1.794115573599E+00  2.433124696615E+00
    5    53 I     1.410245257384E+00  2.274077145237E+00  7.383333324920E-01
    6    53 I    -1.410245257384E+00  2.053679098070E-01 -7.383333324920E-01
    7    53 I     4.090908555854E+00  2.053679098070E-01  8.838810434933E+00
    8    53 I     1.414489550716E+00 -1.863341325623E+00  7.554593705030E-01
    9    53 I     1.409941085310E+00  2.017025133040E-01  3.922576467921E+00
   10    53 I    -1.409941085310E+00 -1.867006722126E+00 -3.922576467921E+00
   11    53 I     4.091212727929E+00  2.270411748734E+00  5.654567299503E+00
   12    53 I     1.414185378641E+00  2.017025133040E-01  3.939702505933E+00
   13     8 O     2.486751801435E+00  1.298947307148E+00  1.921683906577E+00
   14     8 O    -2.486751801435E+00 -7.697619282820E-01 -1.921683906577E+00
   15     8 O     3.014402011804E+00  3.367656542578E+00  7.655459860848E+00
   16     8 O     2.490996094766E+00  1.298947307148E+00  1.938809944588E+00
   17     8 O     5.424293502880E+00  1.264959257522E+00  1.150650762378E+00
   18     8 O    -5.424293502880E+00 -8.037499779080E-01 -1.150650762378E+00
   19     8 O     7.686031035800E-02  3.333668492952E+00  8.426493005046E+00
   20     8 O     5.428537796212E+00  1.264959257522E+00  1.167776800390E+00
   21     8 O     1.863342044053E+00  1.184879573535E+00  8.890548714938E+00
   22     8 O     3.642056062517E+00 -8.838296618950E-01  7.037210904980E-01
   23     8 O     3.637811769186E+00  3.253588808965E+00  6.865950524870E-01
   24     8 O    -3.637811769186E+00  1.184879573535E+00 -6.865950524870E-01
   25     8 O     4.555324011640E-01  3.270167302395E+00  2.738400019080E+00
   26     8 O    -4.555324011640E-01  1.201458066965E+00 -2.738400019080E+00
   27     8 O     5.045621412074E+00  1.201458066965E+00  6.838743748345E+00
   28     8 O     4.597766944960E-01 -8.672511684650E-01  2.755526057091E+00
   29     8 O     2.971964273194E+00  3.335628795401E+00  3.754918731659E+00
   30     8 O    -2.971964273194E+00  1.266919559971E+00 -3.754918731659E+00
   31     8 O     2.529189540045E+00  1.266919559971E+00  5.822225035765E+00
   32     8 O     2.976208566525E+00 -8.017896754590E-01  3.772044769671E+00
   33     8 O     8.458032804980E-01  3.409550270064E+00  5.438166383827E+00
   34     8 O    -8.458032804980E-01  1.340841034634E+00 -5.438166383827E+00
   35     8 O     4.655350532741E+00  1.340841034634E+00  4.138977383597E+00
   36     8 O     8.500475738290E-01 -7.278682007960E-01  5.455292421839E+00
 WARNING **** CRYSTA **** TESTGEOM  DIRECTIVE - GEOMETRY EDITING COMPLETE
 TTTTTTTTTTTTTTTTTTTTTTTTTTTTTT END         TELAPSE        0.02 TCPU        0.02
 EEEEEEEEEE TERMINATION  DATE 31 07 2025 TIME 15:14:24.7
