
         
 *******************************************************************************
 *                                                                             *
 *                               CRYSTAL23                                     *
 *                      public : 1.0.1 - October 2022                          *
 *                       HTTP://WWW.CRYSTAL.UNITO.IT                           *
 *                                                                             *
 *                              MAIN AUTHORS                                   *
 *                                                                             *
 *  R. DOVESI(1,11), V.R. SAUNDERS(2), C. ROETTI(1,11), R. ORLANDO(1,11),      *
 *  C.M. ZICOVICH-WILSON(1,3), F. PASCALE(4), B. CIVALLERI(1,11),              *
 *  K. DOLL(5), N.M. HARRISON(6), I.J. BUSH(7), Ph. D'ARCO(8),                 *
 *  M. LLUNELL(9), M. CAUSA'(10), Y. NOEL(8), L. MASCHIO(1,11), A. ERBA(1,11)  *
 *  M. RE'RAT(14), S. CASASSA(1,11), B.G. SEARLE(2), J.K. DESMARAIS(1)         *
 *                                                                             *
 *        CONTRIBUTIONS TO THE CODE HAVE ALSO BEEN GIVEN BY                    *
 *                                                                             *
 *  M. FERRABONE(1,11), M. DE LA PIERRE(1,11), M. FERRERO(1,11),               *
 *  J. BAIMA(1,11), E. ALBANESE(1,11), M.F. PEINTINGER(12), R. BAST(13),       *
 *  B. KIRTMAN(15), V. LACIVITA(1,11), R. DEMICHELIS(1,16)                     *
 *  G. BRANDEBURG(17), S. SALUSTRO(1,11), G. SANSONE(1,11)                     *
 *  M.T. RUGGIERO(18), L.E. DAGA(1), L. DONA'(1), A. COSSARD(1)                *
 *                                                                             *
 * (1) THEORETICAL CHEMISTRY GROUP - UNIVERSITA' DI TORINO - TORINO (ITALY)    *
 * (2) SCIENTIFIC COMPUTING DEPARTMENT - STFC DARESBURY (UK)                   *
 * (3) UNIVERSIDAD AUTONOMA DEL ESTADO DE MORELOS - CUERNAVACA (MEXICO)        *
 * (4) UNIVERSITE' DE LORRAINE - NANCY (FRANCE)                                *
 * (5) UNIVERSITAET STUTTGART- STUTTGART (GERMANY)                             *
 * (6) IMPERIAL COLLEGE - LONDON (UK)                                          *
 * (7) SCIENTIFIC COMPUTING DEPARTMENT - STFC RAL (UK)                         *
 * (8) UPMC - SORBONNE UNIVERSITES - PARIS (FRANCE)                            *
 * (9) UNIVERSIDAD DE BARCELONA - BARCELONA (SPAIN)                            *
 *(10) UNIVERSITA' DI NAPOLI "FEDERICO II" - NAPOLI (ITALY)                    *
 *(11) NIS - NANOSTRUCTURED INTERFACES AND SURFACES - TORINO (ITALY)           *
 *(12) MPI FUER CHEMISCHE ENERGIEKONVERSION - MUELHEIM AN DER RUHR (GERMANY)   *
 *(13) UNIVERSITY OF TROMSO - TROMSO (NORWAY)                                  *
 *(14) UNIVERSITE' DE PAU ET DES PAYS DE L'ADOUR - PAU (FRANCE)                *
 *(15) UNIVERSITY OF CALIFORNIA SANTA BARBARA - SANTA BARBARA (USA)            *
 *(16) CURTIN UNIVERSITY - PERTH (AUSTRALIA)                                   *
 *(17) UNIVERSITY COLLEGE LONDON - LONDON (UK)                                 *
 *(18) UNIVERSITY OF VERMONT - BURLINGTON (USA)                                *
 *                                                                             *
 *******************************************************************************
 EEEEEEEEEE STARTING  DATE 31 07 2025 TIME 15:14:24.7
 Check                                                                           
 filename=fort.34                        0           0

 GEOMETRY INPUT FROM EXTERNAL FILE (FORTRAN UNIT 34)
 3D - CRYSTAL 

 *******************************************************************************
 LATTICE PARAMETERS  (ANGSTROMS AND DEGREES) - PRIMITIVE CELL
       A          B          C        ALPHA      BETA     GAMMA        VOLUME
   11.06603    4.02930   11.08676    90.00000 120.00323  90.00000    428.097712
 INFORMATION **** CHKGRP **** SPGR WITH NO INVERSION

 NUMBER OF IRREDUCIBLE ATOMS IN THE CELL:   18

 CARTESIAN COORDINATES (ANGSTROM) - IRREDUCIBLE ATOMS AND SYMMETRY RELATED

 AT.IRR.  AT  AT.N.          X                   Y                   Z
     1     1    12    1.333033635365E+00  2.275640282930E+00  7.176066014453E+00
     1     2    12    4.188617813755E+00  2.609882041850E-01  2.425298748056E+00
     3     3    12    4.184171313440E+00  2.609882041850E-01  2.416506804619E+00
     3     4    12   -4.184171313440E+00 -1.753663874560E+00 -2.416506804619E+00
     5     5    53    4.108787674559E+00  2.248003836040E+00  8.844487921040E+00
     5     6    53    1.412863774561E+00  2.333517572950E-01  7.568768414690E-01
     7     7    53    1.408417274247E+00  2.333517572950E-01  7.480848980320E-01
     7     8    53   -1.408417274247E+00 -1.781300321450E+00 -7.480848980320E-01
     9     9    53    4.108471583184E+00  2.305419980550E-01  5.653468841150E+00
     9    10    53    1.413179865936E+00 -1.784110080690E+00  3.947895921359E+00
    11    11    53    1.408733365622E+00  2.245194076800E+00  3.939103977922E+00
    11    12    53   -1.408733365622E+00  2.305419980550E-01 -3.939103977922E+00
    13    13     8    3.043492526284E+00  1.249793359013E+00  7.665188919552E+00
    13    14     8    2.478158922836E+00 -7.648587197320E-01  1.936175842957E+00
    15    15     8    2.473712422522E+00  3.264445437758E+00  1.927383899521E+00
    15    16     8   -2.473712422522E+00  1.249793359013E+00 -1.927383899521E+00
    17    17     8    8.472697465700E-02  1.221033495941E+00  8.451026431973E+00
    17    18     8    5.436924474463E+00 -7.936185828040E-01  1.150338330536E+00
    19    19     8    5.432477974149E+00  3.235685574686E+00  1.141546387099E+00
    19    20     8   -5.432477974149E+00  1.221033495941E+00 -1.141546387099E+00
    21    21     8    3.641164706738E+00  1.152052801441E+00  6.740730166200E-01
    21    22     8   -3.641164706738E+00 -8.625992773040E-01 -6.740730166200E-01
    23    23     8    1.876040242067E+00  3.166704880186E+00  8.918499802453E+00
    23    24     8    3.645611207053E+00  1.152052801441E+00  6.828649600560E-01
    25    25     8    5.065012688260E+00  3.183229496417E+00  6.833106233415E+00
    25    26     8    4.566387608600E-01  1.168577417672E+00  2.768258529094E+00
    27    27     8    4.521922605460E-01  1.168577417672E+00  2.759466585657E+00
    27    28     8   -4.521922605460E-01 -8.460746610730E-01 -2.759466585657E+00
    29    29     8    2.557702464009E+00  3.236840145868E+00  5.835118766773E+00
    29    30     8    2.963948985111E+00  1.222188067123E+00  3.766245995736E+00
    31    31     8    2.959502484796E+00  1.222188067123E+00  3.757454052299E+00
    31    32     8   -2.959502484796E+00 -7.924640116220E-01 -3.757454052299E+00
    33    33     8    4.661583740289E+00  3.300484207663E+00  4.147430294341E+00
    33    34     8    8.600677088310E-01  1.285832128918E+00  5.453934468168E+00
    35    35     8    8.556212085160E-01  1.285832128918E+00  5.445142524731E+00
    35    36     8   -8.556212085160E-01 -7.288199498270E-01 -5.445142524731E+00

 SPACE  GROUP  N.                     :    4
 NUMBER OF SYMMETRY OPERATORS         :    2
 *******************************************************************************
 LATTICE PARAMETERS (ANGSTROMS AND DEGREES) - BOHR = 0.5291772083 ANGSTROM
 PRIMITIVE CELL - CENTRING CODE 1/0 VOLUME=   428.097712 - DENSITY  5.799 g/cm^3
         A              B              C           ALPHA      BETA       GAMMA 
    11.06602927     4.02930416    11.08675707    90.000000 120.003227  90.000000
 *******************************************************************************
 ATOMS IN THE ASYMMETRIC UNIT   18 - ATOMS IN THE UNIT CELL:   36
     ATOM                 X/A                 Y/B                 Z/C    
 *******************************************************************************
      1 T  12 MG    4.949365299095E-01 -4.352274750220E-01 -2.525854786152E-01
      2 F  12 MG   -4.949365299095E-01  6.477252497800E-02  2.525854786152E-01
      3 T  12 MG   -4.957971356872E-01  6.477252497800E-02  2.516697783193E-01
      4 F  12 MG    4.957971356872E-01 -4.352274750220E-01 -2.516697783193E-01
      5 T  53 I    -1.671693431436E-01 -4.420863384410E-01 -7.882526812662E-02
      6 F  53 I     1.671693431436E-01  5.791366155896E-02  7.882526812662E-02
      7 T  53 I     1.663087373661E-01  5.791366155896E-02  7.790956783069E-02
      8 F  53 I    -1.663087373661E-01 -4.420863384410E-01 -7.790956783069E-02
      9 T  53 I    -3.337190414997E-01  5.721633042431E-02 -4.111849679304E-01
     10 F  53 I     3.337190414997E-01 -4.427836695757E-01  4.111849679304E-01
     11 T  53 I     3.328584357222E-01 -4.427836695757E-01  4.102692676344E-01
     12 F  53 I    -3.328584357222E-01  5.721633042431E-02 -4.102692676344E-01
     13 T   8 O    -3.249747496402E-01  3.101759783236E-01 -2.016495273007E-01
     14 F   8 O     3.249747496402E-01 -1.898240216764E-01  2.016495273007E-01
     15 T   8 O     3.241141438627E-01 -1.898240216764E-01  2.007338270049E-01
     16 F   8 O    -3.241141438627E-01  3.101759783236E-01 -2.007338270049E-01
     17 T   8 O     4.486672811771E-01  3.030383034429E-01 -1.197861228475E-01
     18 F   8 O    -4.486672811771E-01 -1.969616965571E-01  1.197861228475E-01
     19 T   8 O    -4.495278869546E-01 -1.969616965571E-01  1.188704225516E-01
     20 F   8 O     4.495278869546E-01  3.030383034429E-01 -1.188704225516E-01
     21 T   8 O     3.642068209759E-01  2.859185498070E-01  7.018977466390E-02
     22 F   8 O    -3.642068209759E-01 -2.140814501930E-01 -7.018977466390E-02
     23 T   8 O    -3.650674267535E-01 -2.140814501930E-01 -7.110547495973E-02
     24 F   8 O     3.650674267535E-01  2.859185498070E-01  7.110547495973E-02
     25 T   8 O    -1.857234439024E-01 -2.099803410225E-01 -2.883249227858E-01
     26 F   8 O     1.857234439024E-01  2.900196589775E-01  2.883249227858E-01
     27 T   8 O     1.848628381249E-01  2.900196589775E-01  2.874092224899E-01
     28 F   8 O    -1.848628381249E-01 -2.099803410225E-01 -2.874092224899E-01
     29 T   8 O    -4.643737114876E-01 -1.966751529911E-01 -3.922575566742E-01
     30 F   8 O     4.643737114876E-01  3.033248470089E-01  3.922575566742E-01
     31 T   8 O     4.635131057099E-01  3.033248470089E-01  3.913418563783E-01
     32 F   8 O    -4.635131057099E-01 -1.966751529911E-01 -3.913418563783E-01
     33 T   8 O    -3.623291122059E-01 -1.808798545208E-01  4.319512563552E-01
     34 F   8 O     3.623291122059E-01  3.191201454792E-01 -4.319512563552E-01
     35 T   8 O     3.614685064283E-01  3.191201454792E-01 -4.328669566511E-01
     36 F   8 O    -3.614685064283E-01 -1.808798545208E-01  4.328669566511E-01

 T = ATOM BELONGING TO THE ASYMMETRIC UNIT
 *******************************************************************************
 * GEOMETRY EDITING - INPUT COORDINATES ARE GIVEN IN ANGSTROM         
 *******************************************************************************

 GEOMETRY NOW FULLY CONSISTENT WITH THE GROUP

 GCALCO - MAX INDICES DIRECT LATTICE VECTOR    11    26    10
 NO.OF VECTORS CREATED 6999 STARS 1822 RMAX   168.90884 BOHR

 GEOMETRY FOR WAVE FUNCTION - DIMENSIONALITY OF THE SYSTEM    3
 (NON PERIODIC DIRECTION: LATTICE PARAMETER FORMALLY SET TO 500)
 *******************************************************************************
 LATTICE PARAMETERS (ANGSTROMS AND DEGREES) - BOHR = 0.5291772083 ANGSTROM
 PRIMITIVE CELL - CENTRING CODE 1/0 VOLUME=   428.097712 - DENSITY  5.799 g/cm^3
         A              B              C           ALPHA      BETA       GAMMA 
    11.06602927     4.02930416    11.08675707    90.000000 120.003227  90.000000
 *******************************************************************************
 ATOMS IN THE ASYMMETRIC UNIT   18 - ATOMS IN THE UNIT CELL:   36
     ATOM                 X/A                 Y/B                 Z/C    
 *******************************************************************************
      1 T  12 MG    4.949365299095E-01 -4.352274750220E-01 -2.525854786152E-01
      2 F  12 MG   -4.949365299095E-01  6.477252497801E-02  2.525854786152E-01
      3 T  12 MG   -4.957971356872E-01  6.477252497800E-02  2.516697783193E-01
      4 F  12 MG    4.957971356872E-01 -4.352274750220E-01 -2.516697783193E-01
      5 T  53 I    -1.671693431436E-01 -4.420863384410E-01 -7.882526812662E-02
      6 F  53 I     1.671693431436E-01  5.791366155896E-02  7.882526812662E-02
      7 T  53 I     1.663087373661E-01  5.791366155896E-02  7.790956783069E-02
      8 F  53 I    -1.663087373661E-01 -4.420863384410E-01 -7.790956783069E-02
      9 T  53 I    -3.337190414997E-01  5.721633042431E-02 -4.111849679304E-01
     10 F  53 I     3.337190414997E-01 -4.427836695757E-01  4.111849679304E-01
     11 T  53 I     3.328584357222E-01 -4.427836695757E-01  4.102692676344E-01
     12 F  53 I    -3.328584357222E-01  5.721633042431E-02 -4.102692676344E-01
     13 T   8 O    -3.249747496402E-01  3.101759783236E-01 -2.016495273007E-01
     14 F   8 O     3.249747496402E-01 -1.898240216764E-01  2.016495273007E-01
     15 T   8 O     3.241141438627E-01 -1.898240216764E-01  2.007338270049E-01
     16 F   8 O    -3.241141438627E-01  3.101759783236E-01 -2.007338270049E-01
     17 T   8 O     4.486672811771E-01  3.030383034429E-01 -1.197861228475E-01
     18 F   8 O    -4.486672811771E-01 -1.969616965571E-01  1.197861228475E-01
     19 T   8 O    -4.495278869546E-01 -1.969616965571E-01  1.188704225516E-01
     20 F   8 O     4.495278869546E-01  3.030383034429E-01 -1.188704225516E-01
     21 T   8 O     3.642068209759E-01  2.859185498070E-01  7.018977466390E-02
     22 F   8 O    -3.642068209759E-01 -2.140814501930E-01 -7.018977466390E-02
     23 T   8 O    -3.650674267535E-01 -2.140814501930E-01 -7.110547495973E-02
     24 F   8 O     3.650674267535E-01  2.859185498070E-01  7.110547495973E-02
     25 T   8 O    -1.857234439024E-01 -2.099803410225E-01 -2.883249227858E-01
     26 F   8 O     1.857234439024E-01  2.900196589775E-01  2.883249227858E-01
     27 T   8 O     1.848628381249E-01  2.900196589775E-01  2.874092224899E-01
     28 F   8 O    -1.848628381249E-01 -2.099803410225E-01 -2.874092224899E-01
     29 T   8 O    -4.643737114876E-01 -1.966751529911E-01 -3.922575566742E-01
     30 F   8 O     4.643737114876E-01  3.033248470089E-01  3.922575566742E-01
     31 T   8 O     4.635131057099E-01  3.033248470089E-01  3.913418563783E-01
     32 F   8 O    -4.635131057099E-01 -1.966751529911E-01 -3.913418563783E-01
     33 T   8 O    -3.623291122059E-01 -1.808798545208E-01  4.319512563552E-01
     34 F   8 O     3.623291122059E-01  3.191201454792E-01 -4.319512563552E-01
     35 T   8 O     3.614685064283E-01  3.191201454792E-01 -4.328669566511E-01
     36 F   8 O    -3.614685064283E-01 -1.808798545208E-01  4.328669566511E-01

 T = ATOM BELONGING TO THE ASYMMETRIC UNIT

 ****    2 SYMMOPS - TRANSLATORS IN FRACTIONAL UNITS
 **** MATRICES AND TRANSLATORS IN THE CRYSTALLOGRAPHIC REFERENCE FRAME
   V INV                    ROTATION MATRICES                   TRANSLATORS
   1   1  1.00  0.00  0.00  0.00  1.00  0.00  0.00  0.00  1.00  0.00  0.00  0.00
   2   2 -1.00  0.00 -0.00  0.00  1.00  0.00  0.00  0.00 -1.00  0.00  0.50  0.00

 DIRECT LATTICE VECTORS CARTESIAN COMPONENTS (ANGSTROM)
          X                    Y                    Z
   0.110660292543E+02   0.000000000000E+00   0.528498179000E-03
   0.000000000000E+00   0.402930415749E+01   0.000000000000E+00
  -0.554437780518E+01   0.000000000000E+00   0.960083626433E+01


 CARTESIAN COORDINATES - PRIMITIVE CELL
 *******************************************************************************
 *      ATOM          X(ANGSTROM)         Y(ANGSTROM)         Z(ANGSTROM)
 *******************************************************************************
    1    12 MG    1.333033635365E+00  2.275640282930E+00  7.176066014453E+00
    2    12 MG    4.188617813755E+00  2.609882041850E-01  2.425298748056E+00
    3    12 MG    4.184171313440E+00  2.609882041850E-01  2.416506804619E+00
    4    12 MG   -4.184171313440E+00 -1.753663874560E+00 -2.416506804619E+00
    5    53 I     4.108787674559E+00  2.248003836040E+00  8.844487921040E+00
    6    53 I     1.412863774561E+00  2.333517572950E-01  7.568768414690E-01
    7    53 I     1.408417274247E+00  2.333517572950E-01  7.480848980320E-01
    8    53 I    -1.408417274247E+00 -1.781300321450E+00 -7.480848980320E-01
    9    53 I     4.108471583184E+00  2.305419980550E-01  5.653468841150E+00
   10    53 I     1.413179865936E+00 -1.784110080690E+00  3.947895921359E+00
   11    53 I     1.408733365622E+00  2.245194076800E+00  3.939103977922E+00
   12    53 I    -1.408733365622E+00  2.305419980550E-01 -3.939103977922E+00
   13     8 O     3.043492526284E+00  1.249793359013E+00  7.665188919552E+00
   14     8 O     2.478158922836E+00 -7.648587197320E-01  1.936175842957E+00
   15     8 O     2.473712422522E+00  3.264445437758E+00  1.927383899521E+00
   16     8 O    -2.473712422522E+00  1.249793359013E+00 -1.927383899521E+00
   17     8 O     8.472697465700E-02  1.221033495941E+00  8.451026431973E+00
   18     8 O     5.436924474463E+00 -7.936185828040E-01  1.150338330536E+00
   19     8 O     5.432477974149E+00  3.235685574686E+00  1.141546387099E+00
   20     8 O    -5.432477974149E+00  1.221033495941E+00 -1.141546387099E+00
   21     8 O     3.641164706738E+00  1.152052801441E+00  6.740730166200E-01
   22     8 O    -3.641164706738E+00 -8.625992773040E-01 -6.740730166200E-01
   23     8 O     1.876040242067E+00  3.166704880186E+00  8.918499802453E+00
   24     8 O     3.645611207053E+00  1.152052801441E+00  6.828649600560E-01
   25     8 O     5.065012688260E+00  3.183229496417E+00  6.833106233415E+00
   26     8 O     4.566387608600E-01  1.168577417672E+00  2.768258529094E+00
   27     8 O     4.521922605460E-01  1.168577417672E+00  2.759466585657E+00
   28     8 O    -4.521922605460E-01 -8.460746610730E-01 -2.759466585657E+00
   29     8 O     2.557702464009E+00  3.236840145868E+00  5.835118766773E+00
   30     8 O     2.963948985111E+00  1.222188067123E+00  3.766245995736E+00
   31     8 O     2.959502484796E+00  1.222188067123E+00  3.757454052299E+00
   32     8 O    -2.959502484796E+00 -7.924640116220E-01 -3.757454052299E+00
   33     8 O     4.661583740289E+00  3.300484207663E+00  4.147430294341E+00
   34     8 O     8.600677088310E-01  1.285832128918E+00  5.453934468168E+00
   35     8 O     8.556212085160E-01  1.285832128918E+00  5.445142524731E+00
   36     8 O    -8.556212085160E-01 -7.288199498270E-01 -5.445142524731E+00
 WARNING **** CRYSTA **** TESTGEOM  DIRECTIVE - GEOMETRY EDITING COMPLETE
 TTTTTTTTTTTTTTTTTTTTTTTTTTTTTT END         TELAPSE        0.02 TCPU        0.02
 EEEEEEEEEE TERMINATION  DATE 31 07 2025 TIME 15:14:24.7
