
         
 *******************************************************************************
 *                                                                             *
 *                               CRYSTAL23                                     *
 *                      public : 1.0.1 - October 2022                          *
 *                       HTTP://WWW.CRYSTAL.UNITO.IT                           *
 *                                                                             *
 *                              MAIN AUTHORS                                   *
 *                                                                             *
 *  R. DOVESI(1,11), V.R. SAUNDERS(2), C. ROETTI(1,11), R. ORLANDO(1,11),      *
 *  C.M. ZICOVICH-WILSON(1,3), F. PASCALE(4), B. CIVALLERI(1,11),              *
 *  K. DOLL(5), N.M. HARRISON(6), I.J. BUSH(7), Ph. D'ARCO(8),                 *
 *  M. LLUNELL(9), M. CAUSA'(10), Y. NOEL(8), L. MASCHIO(1,11), A. ERBA(1,11)  *
 *  M. RE'RAT(14), S. CASASSA(1,11), B.G. SEARLE(2), J.K. DESMARAIS(1)         *
 *                                                                             *
 *        CONTRIBUTIONS TO THE CODE HAVE ALSO BEEN GIVEN BY                    *
 *                                                                             *
 *  M. FERRABONE(1,11), M. DE LA PIERRE(1,11), M. FERRERO(1,11),               *
 *  J. BAIMA(1,11), E. ALBANESE(1,11), M.F. PEINTINGER(12), R. BAST(13),       *
 *  B. KIRTMAN(15), V. LACIVITA(1,11), R. DEMICHELIS(1,16)                     *
 *  G. BRANDEBURG(17), S. SALUSTRO(1,11), G. SANSONE(1,11)                     *
 *  M.T. RUGGIERO(18), L.E. DAGA(1), L. DONA'(1), A. COSSARD(1)                *
 *                                                                             *
 * (1) THEORETICAL CHEMISTRY GROUP - UNIVERSITA' DI TORINO - TORINO (ITALY)    *
 * (2) SCIENTIFIC COMPUTING DEPARTMENT - STFC DARESBURY (UK)                   *
 * (3) UNIVERSIDAD AUTONOMA DEL ESTADO DE MORELOS - CUERNAVACA (MEXICO)        *
 * (4) UNIVERSITE' DE LORRAINE - NANCY (FRANCE)                                *
 * (5) UNIVERSITAET STUTTGART- STUTTGART (GERMANY)                             *
 * (6) IMPERIAL COLLEGE - LONDON (UK)                                          *
 * (7) SCIENTIFIC COMPUTING DEPARTMENT - STFC RAL (UK)                         *
 * (8) UPMC - SORBONNE UNIVERSITES - PARIS (FRANCE)                            *
 * (9) UNIVERSIDAD DE BARCELONA - BARCELONA (SPAIN)                            *
 *(10) UNIVERSITA' DI NAPOLI "FEDERICO II" - NAPOLI (ITALY)                    *
 *(11) NIS - NANOSTRUCTURED INTERFACES AND SURFACES - TORINO (ITALY)           *
 *(12) MPI FUER CHEMISCHE ENERGIEKONVERSION - MUELHEIM AN DER RUHR (GERMANY)   *
 *(13) UNIVERSITY OF TROMSO - TROMSO (NORWAY)                                  *
 *(14) UNIVERSITE' DE PAU ET DES PAYS DE L'ADOUR - PAU (FRANCE)                *
 *(15) UNIVERSITY OF CALIFORNIA SANTA BARBARA - SANTA BARBARA (USA)            *
 *(16) CURTIN UNIVERSITY - PERTH (AUSTRALIA)                                   *
 *(17) UNIVERSITY COLLEGE LONDON - LONDON (UK)                                 *
 *(18) UNIVERSITY OF VERMONT - BURLINGTON (USA)                                *
 *                                                                             *
 *******************************************************************************
 EEEEEEEEEE STARTING  DATE 31 07 2025 TIME 15:14:24.8
 Check                                                                           
 filename=fort.34                        0           0

 GEOMETRY INPUT FROM EXTERNAL FILE (FORTRAN UNIT 34)
 3D - CRYSTAL 

 *******************************************************************************
 LATTICE PARAMETERS  (ANGSTROMS AND DEGREES) - PRIMITIVE CELL
       A          B          C        ALPHA      BETA     GAMMA        VOLUME
   11.07449    3.94511   11.09054    90.00000 120.01371  90.00000    419.571533
 INFORMATION **** CHKGRP **** SPGR WITH NO INVERSION

 NUMBER OF IRREDUCIBLE ATOMS IN THE CELL:   18

 CARTESIAN COORDINATES (ANGSTROM) - IRREDUCIBLE ATOMS AND SYMMETRY RELATED

 AT.IRR.  AT  AT.N.          X                   Y                   Z
     1     1    12    1.342422435972E+00  2.222339693447E+00  7.182537259450E+00
     1     2    12    4.185809050368E+00  2.497848784670E-01  2.420069590705E+00
     3     3    12    4.181638411991E+00  2.497848784670E-01  2.415851391482E+00
     3     4    12   -4.181638411991E+00 -1.722769936513E+00 -2.415851391482E+00
     5     5    53    4.118272612423E+00  2.228825137468E+00  8.843941944704E+00
     5     6    53    1.409958873917E+00  2.562703224880E-01  7.586649054510E-01
     7     7    53    1.405788235540E+00  2.562703224880E-01  7.544467062280E-01
     7     8    53   -1.405788235540E+00 -1.716284492492E+00 -7.544467062280E-01
     9     9    53    4.117794789144E+00  2.544350763800E-01  5.649594037913E+00
     9    10    53    1.410436697196E+00 -1.718119738600E+00  3.953012812242E+00
    11    11    53    1.406266058819E+00  2.226989891360E+00  3.948794613019E+00
    11    12    53   -1.406266058819E+00  2.544350763800E-01 -3.948794613019E+00
    13    13     8    3.063116847095E+00  1.211091099099E+00  7.667525299356E+00
    13    14     8    2.465114639245E+00 -7.614637158810E-01  1.935081550799E+00
    15    15     8    2.460944000868E+00  3.183645914079E+00  1.930863351575E+00
    15    16     8   -2.460944000868E+00  1.211091099099E+00 -1.930863351575E+00
    17    17     8    8.959992329400E-02  1.187117394665E+00  8.465578525307E+00
    17    18     8    5.438631563046E+00 -7.854374203150E-01  1.137028324848E+00
    19    19     8    5.434460924669E+00  3.159672209645E+00  1.132810125625E+00
    19    20     8   -5.434460924669E+00  1.187117394665E+00 -1.132810125625E+00
    21    21     8    3.641477500802E+00  1.125672709209E+00  6.642899457650E-01
    21    22     8   -3.641477500802E+00 -8.468821057710E-01 -6.642899457650E-01
    23    23     8    1.882583347161E+00  3.098227524189E+00  8.934098705167E+00
    23    24     8    3.645648139179E+00  1.125672709209E+00  6.685081449880E-01
    25    25     8    5.074820097709E+00  3.115524773802E+00  6.826231976816E+00
    25    26     8    4.534113886310E-01  1.142969958822E+00  2.776374873339E+00
    27    27     8    4.492407502540E-01  1.142969958822E+00  2.772156674116E+00
    27    28     8   -4.492407502540E-01 -8.295848561580E-01 -2.772156674116E+00
    29    29     8    2.576753295689E+00  3.159410762057E+00  5.840651408860E+00
    29    30     8    2.951478190651E+00  1.186855947077E+00  3.761955441295E+00
    31    31     8    2.947307552274E+00  1.186855947077E+00  3.757737242072E+00
    31    32     8   -2.947307552274E+00 -7.856988679030E-01 -3.757737242072E+00
    33    33     8    4.663130310856E+00  3.215043256839E+00  4.152282484256E+00
    33    34     8    8.651011754840E-01  1.242488441859E+00  5.450324365899E+00
    35    35     8    8.609305371070E-01  1.242488441859E+00  5.446106166676E+00
    35    36     8   -8.609305371070E-01 -7.300663731210E-01 -5.446106166676E+00

 SPACE  GROUP  N.                     :    4
 NUMBER OF SYMMETRY OPERATORS         :    2
 *******************************************************************************
 LATTICE PARAMETERS (ANGSTROMS AND DEGREES) - BOHR = 0.5291772083 ANGSTROM
 PRIMITIVE CELL - CENTRING CODE 1/0 VOLUME=   419.571533 - DENSITY  5.917 g/cm^3
         A              B              C           ALPHA      BETA       GAMMA 
    11.07448929     3.94510963    11.09053798    90.000000 120.013710  90.000000
 *******************************************************************************
 ATOMS IN THE ASYMMETRIC UNIT   18 - ATOMS IN THE UNIT CELL:   36
     ATOM                 X/A                 Y/B                 Z/C    
 *******************************************************************************
      1 T  12 MG    4.957953712060E-01 -4.366849335263E-01 -2.520617926024E-01
      2 F  12 MG   -4.957953712060E-01  6.331506647371E-02  2.520617926024E-01
      3 F  12 MG   -4.963919780511E-01  6.331506647371E-02  2.516224913999E-01
      4 T  12 MG    4.963919780511E-01 -4.366849335263E-01 -2.516224913999E-01
      5 T  53 I    -1.668902183481E-01 -4.350410136789E-01 -7.901995686205E-02
      6 F  53 I     1.668902183481E-01  6.495898632115E-02  7.901995686205E-02
      7 F  53 I     1.662936115030E-01  6.495898632115E-02  7.858065565962E-02
      8 T  53 I    -1.662936115030E-01 -4.350410136789E-01 -7.858065565962E-02
      9 T  53 I    -3.335181485850E-01  6.449379110983E-02 -4.116480979616E-01
     10 F  53 I     3.335181485850E-01 -4.355062088902E-01  4.116480979616E-01
     11 F  53 I     3.329215417400E-01 -4.355062088902E-01  4.112087967592E-01
     12 T  53 I    -3.329215417400E-01  6.449379110983E-02 -4.112087967592E-01
     13 T   8 O    -3.235257309796E-01  3.069854104691E-01 -2.015354550864E-01
     14 F   8 O     3.235257309796E-01 -1.930145895309E-01  2.015354550864E-01
     15 F   8 O     3.229291241345E-01 -1.930145895309E-01  2.010961538838E-01
     16 T   8 O    -3.229291241345E-01  3.069854104691E-01 -2.010961538838E-01
     17 T   8 O     4.495699903399E-01  3.009085946940E-01 -1.184762160208E-01
     18 F   8 O    -4.495699903399E-01 -1.990914053060E-01  1.184762160208E-01
     19 F   8 O    -4.501665971849E-01 -1.990914053060E-01  1.180369148184E-01
     20 T   8 O     4.501665971849E-01  3.009085946940E-01 -1.180369148184E-01
     21 T   8 O     3.634852618396E-01  2.853336953327E-01  6.922435282458E-02
     22 F   8 O    -3.634852618396E-01 -2.146663046673E-01 -6.922435282458E-02
     23 F   8 O    -3.640818686846E-01 -2.146663046673E-01 -6.966365402701E-02
     24 T   8 O     3.640818686846E-01  2.853336953327E-01  6.966365402701E-02
     25 T   8 O    -1.857327397920E-01 -2.102818258479E-01 -2.891109495471E-01
     26 F   8 O     1.857327397920E-01  2.897181741521E-01  2.891109495471E-01
     27 F   8 O     1.851361329470E-01  2.897181741521E-01  2.886716483447E-01
     28 T   8 O    -1.851361329470E-01 -2.102818258479E-01 -2.886716483447E-01
     29 T   8 O    -4.627178681982E-01 -1.991576766172E-01 -3.917751309691E-01
     30 F   8 O     4.627178681982E-01  3.008423233828E-01  3.917751309691E-01
     31 F   8 O     4.621212613531E-01  3.008423233828E-01  3.913358297667E-01
     32 T   8 O    -4.621212613531E-01 -1.991576766172E-01 -3.913358297667E-01
     33 T   8 O    -3.623563528907E-01 -1.850560419352E-01  4.324442701480E-01
     34 F   8 O     3.623563528907E-01  3.149439580648E-01 -4.324442701480E-01
     35 F   8 O     3.617597460456E-01  3.149439580648E-01 -4.328835713505E-01
     36 T   8 O    -3.617597460456E-01 -1.850560419352E-01  4.328835713505E-01

 T = ATOM BELONGING TO THE ASYMMETRIC UNIT
 *******************************************************************************
 * GEOMETRY EDITING - INPUT COORDINATES ARE GIVEN IN ANGSTROM         
 *******************************************************************************

 GEOMETRY NOW FULLY CONSISTENT WITH THE GROUP

 GCALCO - MAX INDICES DIRECT LATTICE VECTOR    11    26    10
 NO.OF VECTORS CREATED 6999 STARS 1822 RMAX   167.88331 BOHR

 GEOMETRY FOR WAVE FUNCTION - DIMENSIONALITY OF THE SYSTEM    3
 (NON PERIODIC DIRECTION: LATTICE PARAMETER FORMALLY SET TO 500)
 *******************************************************************************
 LATTICE PARAMETERS (ANGSTROMS AND DEGREES) - BOHR = 0.5291772083 ANGSTROM
 PRIMITIVE CELL - CENTRING CODE 1/0 VOLUME=   419.571533 - DENSITY  5.917 g/cm^3
         A              B              C           ALPHA      BETA       GAMMA 
    11.07448929     3.94510963    11.09053798    90.000000 120.013710  90.000000
 *******************************************************************************
 ATOMS IN THE ASYMMETRIC UNIT   18 - ATOMS IN THE UNIT CELL:   36
     ATOM                 X/A                 Y/B                 Z/C    
 *******************************************************************************
      1 T  12 MG    4.957953712060E-01 -4.366849335263E-01 -2.520617926024E-01
      2 F  12 MG   -4.957953712060E-01  6.331506647371E-02  2.520617926024E-01
      3 T  12 MG   -4.963919780511E-01  6.331506647371E-02  2.516224913999E-01
      4 F  12 MG    4.963919780511E-01 -4.366849335263E-01 -2.516224913999E-01
      5 T  53 I    -1.668902183481E-01 -4.350410136789E-01 -7.901995686205E-02
      6 F  53 I     1.668902183481E-01  6.495898632115E-02  7.901995686205E-02
      7 T  53 I     1.662936115030E-01  6.495898632115E-02  7.858065565962E-02
      8 F  53 I    -1.662936115030E-01 -4.350410136789E-01 -7.858065565962E-02
      9 T  53 I    -3.335181485850E-01  6.449379110983E-02 -4.116480979616E-01
     10 F  53 I     3.335181485850E-01 -4.355062088902E-01  4.116480979616E-01
     11 T  53 I     3.329215417400E-01 -4.355062088902E-01  4.112087967592E-01
     12 F  53 I    -3.329215417400E-01  6.449379110983E-02 -4.112087967592E-01
     13 T   8 O    -3.235257309796E-01  3.069854104691E-01 -2.015354550864E-01
     14 F   8 O     3.235257309796E-01 -1.930145895309E-01  2.015354550864E-01
     15 T   8 O     3.229291241345E-01 -1.930145895309E-01  2.010961538838E-01
     16 F   8 O    -3.229291241345E-01  3.069854104691E-01 -2.010961538838E-01
     17 T   8 O     4.495699903399E-01  3.009085946940E-01 -1.184762160208E-01
     18 F   8 O    -4.495699903399E-01 -1.990914053060E-01  1.184762160208E-01
     19 T   8 O    -4.501665971849E-01 -1.990914053060E-01  1.180369148184E-01
     20 F   8 O     4.501665971849E-01  3.009085946940E-01 -1.180369148184E-01
     21 T   8 O     3.634852618396E-01  2.853336953327E-01  6.922435282458E-02
     22 F   8 O    -3.634852618396E-01 -2.146663046673E-01 -6.922435282458E-02
     23 T   8 O    -3.640818686846E-01 -2.146663046673E-01 -6.966365402701E-02
     24 F   8 O     3.640818686846E-01  2.853336953327E-01  6.966365402701E-02
     25 T   8 O    -1.857327397920E-01 -2.102818258479E-01 -2.891109495471E-01
     26 F   8 O     1.857327397920E-01  2.897181741521E-01  2.891109495471E-01
     27 T   8 O     1.851361329470E-01  2.897181741521E-01  2.886716483447E-01
     28 F   8 O    -1.851361329470E-01 -2.102818258479E-01 -2.886716483447E-01
     29 T   8 O    -4.627178681982E-01 -1.991576766172E-01 -3.917751309691E-01
     30 F   8 O     4.627178681982E-01  3.008423233828E-01  3.917751309691E-01
     31 T   8 O     4.621212613531E-01  3.008423233828E-01  3.913358297667E-01
     32 F   8 O    -4.621212613531E-01 -1.991576766172E-01 -3.913358297667E-01
     33 T   8 O    -3.623563528907E-01 -1.850560419352E-01  4.324442701480E-01
     34 F   8 O     3.623563528907E-01  3.149439580648E-01 -4.324442701480E-01
     35 T   8 O     3.617597460456E-01  3.149439580648E-01 -4.328835713505E-01
     36 F   8 O    -3.617597460456E-01 -1.850560419352E-01  4.328835713505E-01

 T = ATOM BELONGING TO THE ASYMMETRIC UNIT

 ****    2 SYMMOPS - TRANSLATORS IN FRACTIONAL UNITS
 **** MATRICES AND TRANSLATORS IN THE CRYSTALLOGRAPHIC REFERENCE FRAME
   V INV                    ROTATION MATRICES                   TRANSLATORS
   1   1  1.00  0.00  0.00  0.00  1.00  0.00  0.00  0.00  1.00  0.00  0.00  0.00
   2   2 -1.00  0.00  0.00  0.00  1.00  0.00 -0.00  0.00 -1.00  0.00  0.50  0.00

 DIRECT LATTICE VECTORS CARTESIAN COMPONENTS (ANGSTROM)
          X                    Y                    Z
   0.110744891831E+02   0.000000000000E+00  -0.150988069500E-02
   0.000000000000E+00   0.394510962996E+01  -0.000000000000E+00
  -0.554625769676E+01   0.000000000000E+00   0.960411673085E+01


 CARTESIAN COORDINATES - PRIMITIVE CELL
 *******************************************************************************
 *      ATOM          X(ANGSTROM)         Y(ANGSTROM)         Z(ANGSTROM)
 *******************************************************************************
    1    12 MG    1.342422435972E+00  2.222339693447E+00  7.182537259450E+00
    2    12 MG    4.185809050368E+00  2.497848784670E-01  2.420069590705E+00
    3    12 MG    4.181638411991E+00  2.497848784670E-01  2.415851391482E+00
    4    12 MG   -4.181638411991E+00 -1.722769936513E+00 -2.415851391482E+00
    5    53 I     4.118272612423E+00  2.228825137468E+00  8.843941944704E+00
    6    53 I     1.409958873917E+00  2.562703224880E-01  7.586649054510E-01
    7    53 I     1.405788235540E+00  2.562703224880E-01  7.544467062280E-01
    8    53 I    -1.405788235540E+00 -1.716284492492E+00 -7.544467062280E-01
    9    53 I     4.117794789144E+00  2.544350763800E-01  5.649594037913E+00
   10    53 I     1.410436697196E+00 -1.718119738600E+00  3.953012812242E+00
   11    53 I     1.406266058819E+00  2.226989891360E+00  3.948794613019E+00
   12    53 I    -1.406266058819E+00  2.544350763800E-01 -3.948794613019E+00
   13     8 O     3.063116847095E+00  1.211091099099E+00  7.667525299356E+00
   14     8 O     2.465114639245E+00 -7.614637158810E-01  1.935081550799E+00
   15     8 O     2.460944000868E+00  3.183645914079E+00  1.930863351575E+00
   16     8 O    -2.460944000868E+00  1.211091099099E+00 -1.930863351575E+00
   17     8 O     8.959992329400E-02  1.187117394665E+00  8.465578525307E+00
   18     8 O     5.438631563046E+00 -7.854374203150E-01  1.137028324848E+00
   19     8 O     5.434460924669E+00  3.159672209645E+00  1.132810125625E+00
   20     8 O    -5.434460924669E+00  1.187117394665E+00 -1.132810125625E+00
   21     8 O     3.641477500802E+00  1.125672709209E+00  6.642899457650E-01
   22     8 O    -3.641477500802E+00 -8.468821057710E-01 -6.642899457650E-01
   23     8 O     1.882583347161E+00  3.098227524189E+00  8.934098705167E+00
   24     8 O     3.645648139179E+00  1.125672709209E+00  6.685081449880E-01
   25     8 O     5.074820097709E+00  3.115524773802E+00  6.826231976816E+00
   26     8 O     4.534113886310E-01  1.142969958822E+00  2.776374873339E+00
   27     8 O     4.492407502540E-01  1.142969958822E+00  2.772156674116E+00
   28     8 O    -4.492407502540E-01 -8.295848561580E-01 -2.772156674116E+00
   29     8 O     2.576753295689E+00  3.159410762057E+00  5.840651408860E+00
   30     8 O     2.951478190651E+00  1.186855947077E+00  3.761955441295E+00
   31     8 O     2.947307552274E+00  1.186855947077E+00  3.757737242072E+00
   32     8 O    -2.947307552274E+00 -7.856988679030E-01 -3.757737242072E+00
   33     8 O     4.663130310856E+00  3.215043256839E+00  4.152282484256E+00
   34     8 O     8.651011754840E-01  1.242488441859E+00  5.450324365899E+00
   35     8 O     8.609305371070E-01  1.242488441859E+00  5.446106166676E+00
   36     8 O    -8.609305371070E-01 -7.300663731210E-01 -5.446106166676E+00
 WARNING **** CRYSTA **** TESTGEOM  DIRECTIVE - GEOMETRY EDITING COMPLETE
 TTTTTTTTTTTTTTTTTTTTTTTTTTTTTT END         TELAPSE        0.02 TCPU        0.02
 EEEEEEEEEE TERMINATION  DATE 31 07 2025 TIME 15:14:24.8
