
         
 *******************************************************************************
 *                                                                             *
 *                               CRYSTAL23                                     *
 *                      public : 1.0.1 - October 2022                          *
 *                       HTTP://WWW.CRYSTAL.UNITO.IT                           *
 *                                                                             *
 *                              MAIN AUTHORS                                   *
 *                                                                             *
 *  R. DOVESI(1,11), V.R. SAUNDERS(2), C. ROETTI(1,11), R. ORLANDO(1,11),      *
 *  C.M. ZICOVICH-WILSON(1,3), F. PASCALE(4), B. CIVALLERI(1,11),              *
 *  K. DOLL(5), N.M. HARRISON(6), I.J. BUSH(7), Ph. D'ARCO(8),                 *
 *  M. LLUNELL(9), M. CAUSA'(10), Y. NOEL(8), L. MASCHIO(1,11), A. ERBA(1,11)  *
 *  M. RE'RAT(14), S. CASASSA(1,11), B.G. SEARLE(2), J.K. DESMARAIS(1)         *
 *                                                                             *
 *        CONTRIBUTIONS TO THE CODE HAVE ALSO BEEN GIVEN BY                    *
 *                                                                             *
 *  M. FERRABONE(1,11), M. DE LA PIERRE(1,11), M. FERRERO(1,11),               *
 *  J. BAIMA(1,11), E. ALBANESE(1,11), M.F. PEINTINGER(12), R. BAST(13),       *
 *  B. KIRTMAN(15), V. LACIVITA(1,11), R. DEMICHELIS(1,16)                     *
 *  G. BRANDEBURG(17), S. SALUSTRO(1,11), G. SANSONE(1,11)                     *
 *  M.T. RUGGIERO(18), L.E. DAGA(1), L. DONA'(1), A. COSSARD(1)                *
 *                                                                             *
 * (1) THEORETICAL CHEMISTRY GROUP - UNIVERSITA' DI TORINO - TORINO (ITALY)    *
 * (2) SCIENTIFIC COMPUTING DEPARTMENT - STFC DARESBURY (UK)                   *
 * (3) UNIVERSIDAD AUTONOMA DEL ESTADO DE MORELOS - CUERNAVACA (MEXICO)        *
 * (4) UNIVERSITE' DE LORRAINE - NANCY (FRANCE)                                *
 * (5) UNIVERSITAET STUTTGART- STUTTGART (GERMANY)                             *
 * (6) IMPERIAL COLLEGE - LONDON (UK)                                          *
 * (7) SCIENTIFIC COMPUTING DEPARTMENT - STFC RAL (UK)                         *
 * (8) UPMC - SORBONNE UNIVERSITES - PARIS (FRANCE)                            *
 * (9) UNIVERSIDAD DE BARCELONA - BARCELONA (SPAIN)                            *
 *(10) UNIVERSITA' DI NAPOLI "FEDERICO II" - NAPOLI (ITALY)                    *
 *(11) NIS - NANOSTRUCTURED INTERFACES AND SURFACES - TORINO (ITALY)           *
 *(12) MPI FUER CHEMISCHE ENERGIEKONVERSION - MUELHEIM AN DER RUHR (GERMANY)   *
 *(13) UNIVERSITY OF TROMSO - TROMSO (NORWAY)                                  *
 *(14) UNIVERSITE' DE PAU ET DES PAYS DE L'ADOUR - PAU (FRANCE)                *
 *(15) UNIVERSITY OF CALIFORNIA SANTA BARBARA - SANTA BARBARA (USA)            *
 *(16) CURTIN UNIVERSITY - PERTH (AUSTRALIA)                                   *
 *(17) UNIVERSITY COLLEGE LONDON - LONDON (UK)                                 *
 *(18) UNIVERSITY OF VERMONT - BURLINGTON (USA)                                *
 *                                                                             *
 *******************************************************************************
 EEEEEEEEEE STARTING  DATE 31 07 2025 TIME 15:14:24.8
 Check                                                                           
 filename=fort.34                        0           0

 GEOMETRY INPUT FROM EXTERNAL FILE (FORTRAN UNIT 34)
 3D - CRYSTAL 

 *******************************************************************************
 LATTICE PARAMETERS  (ANGSTROMS AND DEGREES) - PRIMITIVE CELL
       A          B          C        ALPHA      BETA     GAMMA        VOLUME
   11.07594    3.87761   11.08776    90.00000 120.01711  90.00000    412.329882
 INFORMATION **** CHKGRP **** SPGR WITH NO INVERSION

 NUMBER OF IRREDUCIBLE ATOMS IN THE CELL:   18

 CARTESIAN COORDINATES (ANGSTROM) - IRREDUCIBLE ATOMS AND SYMMETRY RELATED

 AT.IRR.  AT  AT.N.          X                   Y                   Z
     1     1    12    1.349106531710E+00  2.178968674587E+00  7.184022544850E+00
     1     2    12    4.180504627900E+00  2.401614507620E-01  2.416362437917E+00
     3     3    12    4.178556766039E+00  2.401614507620E-01  2.413962394561E+00
     3     4    12   -4.178556766039E+00 -1.698645773063E+00 -2.413962394561E+00
     5     5    53    4.124042443312E+00  2.214106415176E+00  8.838708654904E+00
     5     6    53    1.405568716298E+00  2.752991913510E-01  7.616763278630E-01
     7     7    53    1.403620854437E+00  2.752991913510E-01  7.592762845070E-01
     7     8    53   -1.403620854437E+00 -1.663508032474E+00 -7.592762845070E-01
     9     9    53    4.123275784212E+00  2.745512488480E-01  5.643699391981E+00
     9    10    53    1.406335375398E+00 -1.664255974977E+00  3.956685590786E+00
    11    11    53    1.404387513537E+00  2.213358472673E+00  3.954285547429E+00
    11    12    53   -1.404387513537E+00  2.745512488480E-01 -3.954285547429E+00
    13    13     8    3.077615911142E+00  1.179986452046E+00  7.664646840471E+00
    13    14     8    2.451995248468E+00 -7.588207717790E-01  1.935738142296E+00
    15    15     8    2.450047386607E+00  3.118793675871E+00  1.933338098939E+00
    15    16     8   -2.450047386607E+00  1.179986452046E+00 -1.933338098939E+00
    17    17     8    9.330333927800E-02  1.159331409878E+00  8.472705602778E+00
    17    18     8    5.436307820332E+00 -7.794758139470E-01  1.127679379989E+00
    19    19     8    5.434359958471E+00  3.098138633703E+00  1.125279336633E+00
    19    20     8   -5.434359958471E+00  1.159331409878E+00 -1.125279336633E+00
    21    21     8    3.639008292797E+00  1.104668428832E+00  6.569023493850E-01
    21    22     8   -3.639008292797E+00 -8.341387949930E-01 -6.569023493850E-01
    23    23     8    1.888655004952E+00  3.043475652657E+00  8.941082590025E+00
    23    24     8    3.640956154658E+00  1.104668428832E+00  6.593023927420E-01
    25    25     8    5.079746206047E+00  3.060682502597E+00  6.818033977978E+00
    25    26     8    4.498649535630E-01  1.121875278772E+00  2.782351004789E+00
    27    27     8    4.479170917020E-01  1.121875278772E+00  2.779950961432E+00
    27    28     8   -4.479170917020E-01 -8.169319450530E-01 -2.779950961432E+00
    29    29     8    2.590031688910E+00  3.097202929487E+00  5.840820780951E+00
    29    30     8    2.939579470700E+00  1.158395705662E+00  3.759564201816E+00
    31    31     8    2.937631608840E+00  1.158395705662E+00  3.757164158460E+00
    31    32     8   -2.937631608840E+00 -7.804115181630E-01 -3.757164158460E+00
    33    33     8    4.663820099309E+00  3.146807230168E+00  4.154276674047E+00
    33    34     8    8.657910603010E-01  1.208000006343E+00  5.446108308720E+00
    35    35     8    8.638431984410E-01  1.208000006343E+00  5.443708265363E+00
    35    36     8   -8.638431984410E-01 -7.308072174820E-01 -5.443708265363E+00

 SPACE  GROUP  N.                     :    4
 NUMBER OF SYMMETRY OPERATORS         :    2
 *******************************************************************************
 LATTICE PARAMETERS (ANGSTROMS AND DEGREES) - BOHR = 0.5291772083 ANGSTROM
 PRIMITIVE CELL - CENTRING CODE 1/0 VOLUME=   412.329882 - DENSITY  6.021 g/cm^3
         A              B              C           ALPHA      BETA       GAMMA 
    11.07593682     3.87761445    11.08776483    90.000000 120.017114  90.000000
 *******************************************************************************
 ATOMS IN THE ASYMMETRIC UNIT   18 - ATOMS IN THE UNIT CELL:   36
     ATOM                 X/A                 Y/B                 Z/C    
 *******************************************************************************
      1 T  12 MG    4.965162132539E-01 -4.380646389670E-01 -2.517071781629E-01
      2 F  12 MG   -4.965162132539E-01  6.193536103301E-02  2.517071781629E-01
      3 F  12 MG   -4.968172647341E-01  6.193536103301E-02  2.514571810662E-01
      4 T  12 MG    4.968172647341E-01 -4.380646389670E-01 -2.514571810662E-01
      5 T  53 I    -1.666340656064E-01 -4.290029488316E-01 -7.934255800630E-02
      6 F  53 I     1.666340656064E-01  7.099705116837E-02  7.934255800630E-02
      7 F  53 I     1.663330141261E-01  7.099705116837E-02  7.909256090952E-02
      8 T  53 I    -1.663330141261E-01 -4.290029488316E-01 -7.909256090952E-02
      9 T  53 I    -3.333502099023E-01  7.080416388854E-02 -4.121342000576E-01
     10 F  53 I     3.333502099023E-01 -4.291958361115E-01  4.121342000576E-01
     11 F  53 I     3.330491584220E-01 -4.291958361115E-01  4.118842029607E-01
     12 T  53 I    -3.330491584220E-01  7.080416388854E-02 -4.118842029607E-01
     13 T   8 O    -3.223512697898E-01  3.043073178049E-01 -2.016374653572E-01
     14 F   8 O     3.223512697898E-01 -1.956926821951E-01  2.016374653572E-01
     15 F   8 O     3.220502183095E-01 -1.956926821951E-01  2.013874682603E-01
     16 T   8 O    -3.220502183095E-01  3.043073178049E-01 -2.013874682603E-01
     17 T   8 O     4.503478873593E-01  2.989805782730E-01 -1.174839501449E-01
     18 F   8 O    -4.503478873593E-01 -2.010194217270E-01  1.174839501449E-01
     19 F   8 O    -4.506489388395E-01 -2.010194217270E-01  1.172339530482E-01
     20 T   8 O     4.506489388395E-01  2.989805782730E-01 -1.172339530482E-01
     21 T   8 O     3.628222809214E-01  2.848835137546E-01  6.843960984130E-02
     22 F   8 O    -3.628222809214E-01 -2.151164862454E-01 -6.843960984130E-02
     23 F   8 O    -3.631233324016E-01 -2.151164862454E-01 -6.868960693818E-02
     24 T   8 O     3.631233324016E-01  2.848835137546E-01  6.868960693818E-02
     25 T   8 O    -1.857407468266E-01 -2.106790027946E-01 -2.898112954028E-01
     26 F   8 O     1.857407468266E-01  2.893209972054E-01  2.898112954028E-01
     27 F   8 O     1.854396953463E-01  2.893209972054E-01  2.895612983060E-01
     28 T   8 O    -1.854396953463E-01 -2.106790027946E-01 -2.895612983060E-01
     29 T   8 O    -4.615023852411E-01 -2.012607309724E-01 -3.916091341753E-01
     30 F   8 O     4.615023852411E-01  2.987392690276E-01  3.916091341753E-01
     31 F   8 O     4.612013337610E-01  2.987392690276E-01  3.913591370785E-01
     32 T   8 O    -4.612013337610E-01 -2.012607309724E-01 -3.913591370785E-01
     33 T   8 O    -3.622315480468E-01 -1.884682521556E-01  4.327302659375E-01
     34 F   8 O     3.622315480468E-01  3.115317478444E-01 -4.327302659375E-01
     35 F   8 O     3.619304965666E-01  3.115317478444E-01 -4.329802630344E-01
     36 T   8 O    -3.619304965666E-01 -1.884682521556E-01  4.329802630344E-01

 T = ATOM BELONGING TO THE ASYMMETRIC UNIT
 *******************************************************************************
 * GEOMETRY EDITING - INPUT COORDINATES ARE GIVEN IN ANGSTROM         
 *******************************************************************************

 GEOMETRY NOW FULLY CONSISTENT WITH THE GROUP

 GCALCO - MAX INDICES DIRECT LATTICE VECTOR    10    27    10
 NO.OF VECTORS CREATED 6999 STARS 1820 RMAX   166.83849 BOHR

 GEOMETRY FOR WAVE FUNCTION - DIMENSIONALITY OF THE SYSTEM    3
 (NON PERIODIC DIRECTION: LATTICE PARAMETER FORMALLY SET TO 500)
 *******************************************************************************
 LATTICE PARAMETERS (ANGSTROMS AND DEGREES) - BOHR = 0.5291772083 ANGSTROM
 PRIMITIVE CELL - CENTRING CODE 1/0 VOLUME=   412.329882 - DENSITY  6.021 g/cm^3
         A              B              C           ALPHA      BETA       GAMMA 
    11.07593682     3.87761445    11.08776483    90.000000 120.017114  90.000000
 *******************************************************************************
 ATOMS IN THE ASYMMETRIC UNIT   18 - ATOMS IN THE UNIT CELL:   36
     ATOM                 X/A                 Y/B                 Z/C    
 *******************************************************************************
      1 T  12 MG    4.965162132539E-01 -4.380646389670E-01 -2.517071781629E-01
      2 F  12 MG   -4.965162132539E-01  6.193536103301E-02  2.517071781629E-01
      3 F  12 MG   -4.968172647341E-01  6.193536103301E-02  2.514571810662E-01
      4 T  12 MG    4.968172647341E-01 -4.380646389670E-01 -2.514571810662E-01
      5 T  53 I    -1.666340656064E-01 -4.290029488316E-01 -7.934255800630E-02
      6 F  53 I     1.666340656064E-01  7.099705116837E-02  7.934255800630E-02
      7 F  53 I     1.663330141261E-01  7.099705116837E-02  7.909256090952E-02
      8 T  53 I    -1.663330141261E-01 -4.290029488316E-01 -7.909256090952E-02
      9 T  53 I    -3.333502099023E-01  7.080416388854E-02 -4.121342000576E-01
     10 F  53 I     3.333502099023E-01 -4.291958361115E-01  4.121342000576E-01
     11 F  53 I     3.330491584220E-01 -4.291958361115E-01  4.118842029607E-01
     12 T  53 I    -3.330491584220E-01  7.080416388854E-02 -4.118842029607E-01
     13 T   8 O    -3.223512697898E-01  3.043073178049E-01 -2.016374653572E-01
     14 F   8 O     3.223512697898E-01 -1.956926821951E-01  2.016374653572E-01
     15 F   8 O     3.220502183095E-01 -1.956926821951E-01  2.013874682603E-01
     16 T   8 O    -3.220502183095E-01  3.043073178049E-01 -2.013874682603E-01
     17 T   8 O     4.503478873593E-01  2.989805782730E-01 -1.174839501449E-01
     18 F   8 O    -4.503478873593E-01 -2.010194217270E-01  1.174839501449E-01
     19 F   8 O    -4.506489388395E-01 -2.010194217270E-01  1.172339530482E-01
     20 T   8 O     4.506489388395E-01  2.989805782730E-01 -1.172339530482E-01
     21 T   8 O     3.628222809214E-01  2.848835137546E-01  6.843960984130E-02
     22 F   8 O    -3.628222809214E-01 -2.151164862454E-01 -6.843960984130E-02
     23 F   8 O    -3.631233324016E-01 -2.151164862454E-01 -6.868960693818E-02
     24 T   8 O     3.631233324016E-01  2.848835137546E-01  6.868960693818E-02
     25 T   8 O    -1.857407468266E-01 -2.106790027946E-01 -2.898112954028E-01
     26 F   8 O     1.857407468266E-01  2.893209972054E-01  2.898112954028E-01
     27 F   8 O     1.854396953463E-01  2.893209972054E-01  2.895612983060E-01
     28 T   8 O    -1.854396953463E-01 -2.106790027946E-01 -2.895612983060E-01
     29 T   8 O    -4.615023852411E-01 -2.012607309724E-01 -3.916091341753E-01
     30 F   8 O     4.615023852411E-01  2.987392690276E-01  3.916091341753E-01
     31 F   8 O     4.612013337610E-01  2.987392690276E-01  3.913591370785E-01
     32 T   8 O    -4.612013337610E-01 -2.012607309724E-01 -3.913591370785E-01
     33 T   8 O    -3.622315480468E-01 -1.884682521556E-01  4.327302659375E-01
     34 F   8 O     3.622315480468E-01  3.115317478444E-01 -4.327302659375E-01
     35 F   8 O     3.619304965666E-01  3.115317478444E-01 -4.329802630344E-01
     36 T   8 O    -3.619304965666E-01 -1.884682521556E-01  4.329802630344E-01

 T = ATOM BELONGING TO THE ASYMMETRIC UNIT

 ****    2 SYMMOPS - TRANSLATORS IN FRACTIONAL UNITS
 **** MATRICES AND TRANSLATORS IN THE CRYSTALLOGRAPHIC REFERENCE FRAME
   V INV                    ROTATION MATRICES                   TRANSLATORS
   1   1  1.00  0.00  0.00  0.00  1.00  0.00  0.00  0.00  1.00  0.00  0.00  0.00
   2   2 -1.00  0.00 -0.00  0.00  1.00  0.00 -0.00  0.00 -1.00  0.00  0.50  0.00

 DIRECT LATTICE VECTORS CARTESIAN COMPONENTS (ANGSTROM)
          X                    Y                    Z
   0.110759368087E+02   0.000000000000E+00  -0.490019203000E-03
   0.000000000000E+00   0.387761444765E+01  -0.000000000000E+00
  -0.554632564909E+01   0.000000000000E+00   0.960087500197E+01


 CARTESIAN COORDINATES - PRIMITIVE CELL
 *******************************************************************************
 *      ATOM          X(ANGSTROM)         Y(ANGSTROM)         Z(ANGSTROM)
 *******************************************************************************
    1    12 MG    1.349106531710E+00  2.178968674587E+00  7.184022544850E+00
    2    12 MG    4.180504627900E+00  2.401614507620E-01  2.416362437917E+00
    3    12 MG    4.178556766039E+00  2.401614507620E-01  2.413962394561E+00
    4    12 MG   -4.178556766039E+00 -1.698645773063E+00 -2.413962394561E+00
    5    53 I     4.124042443312E+00  2.214106415176E+00  8.838708654904E+00
    6    53 I     1.405568716298E+00  2.752991913510E-01  7.616763278630E-01
    7    53 I     1.403620854437E+00  2.752991913510E-01  7.592762845070E-01
    8    53 I    -1.403620854437E+00 -1.663508032474E+00 -7.592762845070E-01
    9    53 I     4.123275784212E+00  2.745512488480E-01  5.643699391981E+00
   10    53 I     1.406335375398E+00 -1.664255974977E+00  3.956685590786E+00
   11    53 I     1.404387513537E+00  2.213358472673E+00  3.954285547429E+00
   12    53 I    -1.404387513537E+00  2.745512488480E-01 -3.954285547429E+00
   13     8 O     3.077615911142E+00  1.179986452046E+00  7.664646840471E+00
   14     8 O     2.451995248468E+00 -7.588207717790E-01  1.935738142296E+00
   15     8 O     2.450047386607E+00  3.118793675871E+00  1.933338098939E+00
   16     8 O    -2.450047386607E+00  1.179986452046E+00 -1.933338098939E+00
   17     8 O     9.330333927800E-02  1.159331409878E+00  8.472705602778E+00
   18     8 O     5.436307820332E+00 -7.794758139470E-01  1.127679379989E+00
   19     8 O     5.434359958471E+00  3.098138633703E+00  1.125279336633E+00
   20     8 O    -5.434359958471E+00  1.159331409878E+00 -1.125279336633E+00
   21     8 O     3.639008292797E+00  1.104668428832E+00  6.569023493850E-01
   22     8 O    -3.639008292797E+00 -8.341387949930E-01 -6.569023493850E-01
   23     8 O     1.888655004952E+00  3.043475652657E+00  8.941082590025E+00
   24     8 O     3.640956154658E+00  1.104668428832E+00  6.593023927420E-01
   25     8 O     5.079746206047E+00  3.060682502597E+00  6.818033977978E+00
   26     8 O     4.498649535630E-01  1.121875278772E+00  2.782351004789E+00
   27     8 O     4.479170917020E-01  1.121875278772E+00  2.779950961432E+00
   28     8 O    -4.479170917020E-01 -8.169319450530E-01 -2.779950961432E+00
   29     8 O     2.590031688910E+00  3.097202929487E+00  5.840820780951E+00
   30     8 O     2.939579470700E+00  1.158395705662E+00  3.759564201816E+00
   31     8 O     2.937631608840E+00  1.158395705662E+00  3.757164158460E+00
   32     8 O    -2.937631608840E+00 -7.804115181630E-01 -3.757164158460E+00
   33     8 O     4.663820099309E+00  3.146807230168E+00  4.154276674047E+00
   34     8 O     8.657910603010E-01  1.208000006343E+00  5.446108308720E+00
   35     8 O     8.638431984410E-01  1.208000006343E+00  5.443708265363E+00
   36     8 O    -8.638431984410E-01 -7.308072174820E-01 -5.443708265363E+00
 WARNING **** CRYSTA **** TESTGEOM  DIRECTIVE - GEOMETRY EDITING COMPLETE
 TTTTTTTTTTTTTTTTTTTTTTTTTTTTTT END         TELAPSE        0.02 TCPU        0.02
 EEEEEEEEEE TERMINATION  DATE 31 07 2025 TIME 15:14:24.8
