
         
 *******************************************************************************
 *                                                                             *
 *                               CRYSTAL23                                     *
 *                      public : 1.0.1 - October 2022                          *
 *                       HTTP://WWW.CRYSTAL.UNITO.IT                           *
 *                                                                             *
 *                              MAIN AUTHORS                                   *
 *                                                                             *
 *  R. DOVESI(1,11), V.R. SAUNDERS(2), C. ROETTI(1,11), R. ORLANDO(1,11),      *
 *  C.M. ZICOVICH-WILSON(1,3), F. PASCALE(4), B. CIVALLERI(1,11),              *
 *  K. DOLL(5), N.M. HARRISON(6), I.J. BUSH(7), Ph. D'ARCO(8),                 *
 *  M. LLUNELL(9), M. CAUSA'(10), Y. NOEL(8), L. MASCHIO(1,11), A. ERBA(1,11)  *
 *  M. RE'RAT(14), S. CASASSA(1,11), B.G. SEARLE(2), J.K. DESMARAIS(1)         *
 *                                                                             *
 *        CONTRIBUTIONS TO THE CODE HAVE ALSO BEEN GIVEN BY                    *
 *                                                                             *
 *  M. FERRABONE(1,11), M. DE LA PIERRE(1,11), M. FERRERO(1,11),               *
 *  J. BAIMA(1,11), E. ALBANESE(1,11), M.F. PEINTINGER(12), R. BAST(13),       *
 *  B. KIRTMAN(15), V. LACIVITA(1,11), R. DEMICHELIS(1,16)                     *
 *  G. BRANDEBURG(17), S. SALUSTRO(1,11), G. SANSONE(1,11)                     *
 *  M.T. RUGGIERO(18), L.E. DAGA(1), L. DONA'(1), A. COSSARD(1)                *
 *                                                                             *
 * (1) THEORETICAL CHEMISTRY GROUP - UNIVERSITA' DI TORINO - TORINO (ITALY)    *
 * (2) SCIENTIFIC COMPUTING DEPARTMENT - STFC DARESBURY (UK)                   *
 * (3) UNIVERSIDAD AUTONOMA DEL ESTADO DE MORELOS - CUERNAVACA (MEXICO)        *
 * (4) UNIVERSITE' DE LORRAINE - NANCY (FRANCE)                                *
 * (5) UNIVERSITAET STUTTGART- STUTTGART (GERMANY)                             *
 * (6) IMPERIAL COLLEGE - LONDON (UK)                                          *
 * (7) SCIENTIFIC COMPUTING DEPARTMENT - STFC RAL (UK)                         *
 * (8) UPMC - SORBONNE UNIVERSITES - PARIS (FRANCE)                            *
 * (9) UNIVERSIDAD DE BARCELONA - BARCELONA (SPAIN)                            *
 *(10) UNIVERSITA' DI NAPOLI "FEDERICO II" - NAPOLI (ITALY)                    *
 *(11) NIS - NANOSTRUCTURED INTERFACES AND SURFACES - TORINO (ITALY)           *
 *(12) MPI FUER CHEMISCHE ENERGIEKONVERSION - MUELHEIM AN DER RUHR (GERMANY)   *
 *(13) UNIVERSITY OF TROMSO - TROMSO (NORWAY)                                  *
 *(14) UNIVERSITE' DE PAU ET DES PAYS DE L'ADOUR - PAU (FRANCE)                *
 *(15) UNIVERSITY OF CALIFORNIA SANTA BARBARA - SANTA BARBARA (USA)            *
 *(16) CURTIN UNIVERSITY - PERTH (AUSTRALIA)                                   *
 *(17) UNIVERSITY COLLEGE LONDON - LONDON (UK)                                 *
 *(18) UNIVERSITY OF VERMONT - BURLINGTON (USA)                                *
 *                                                                             *
 *******************************************************************************
 EEEEEEEEEE STARTING  DATE 31 07 2025 TIME 15:14:24.8
 Check                                                                           
 filename=fort.34                        0           0

 GEOMETRY INPUT FROM EXTERNAL FILE (FORTRAN UNIT 34)
 3D - CRYSTAL 

 *******************************************************************************
 LATTICE PARAMETERS  (ANGSTROMS AND DEGREES) - PRIMITIVE CELL
       A          B          C        ALPHA      BETA     GAMMA        VOLUME
   11.07105    3.82490   11.07972    90.00000 120.02475  90.00000    406.218668
 INFORMATION **** CHKGRP **** SPGR WITH NO INVERSION

 NUMBER OF IRREDUCIBLE ATOMS IN THE CELL:   18

 CARTESIAN COORDINATES (ANGSTROM) - IRREDUCIBLE ATOMS AND SYMMETRY RELATED

 AT.IRR.  AT  AT.N.          X                   Y                   Z
     1     1    12    1.353775059428E+00  2.143166000949E+00  7.180829573810E+00
     1     2    12    4.174174039082E+00  2.307153310590E-01  2.411571997337E+00
     3     3    12    4.173176167467E+00  2.307153310590E-01  2.411924599453E+00
     3     4    12   -4.173176167467E+00 -1.681735338831E+00 -2.411924599453E+00
     5     5    53    4.126245483590E+00  2.204165565797E+00  8.831080248241E+00
     5     6    53    1.401703614920E+00  2.917148959070E-01  7.613213229060E-01
     7     7    53    1.400705743305E+00  2.917148959070E-01  7.616739250220E-01
     7     8    53   -1.400705743305E+00 -1.620735773983E+00 -7.616739250220E-01
     9     9    53    4.125289788888E+00  2.908103722040E-01  5.636708455408E+00
     9    10    53    1.402659309622E+00 -1.621640297686E+00  3.955693115739E+00
    11    11    53    1.401661438007E+00  2.203261042094E+00  3.956045717855E+00
    11    12    53   -1.401661438007E+00  2.908103722040E-01 -3.956045717855E+00
    13    13     8    3.087873232331E+00  1.155826268023E+00  7.658599657705E+00
    13    14     8    2.440075866179E+00 -7.566244018670E-01  1.933801913442E+00
    15    15     8    2.439077994564E+00  3.068276937913E+00  1.934154515558E+00
    15    16     8   -2.439077994564E+00  1.155826268023E+00 -1.934154515558E+00
    17    17     8    9.656305165100E-02  1.137801255825E+00  8.474800866643E+00
    17    18     8    5.431386046859E+00 -7.746494140650E-01  1.117600704504E+00
    19    19     8    5.430388175244E+00  3.050251925715E+00  1.117953306620E+00
    19    20     8   -5.430388175244E+00  1.137801255825E+00 -1.117953306620E+00
    21    21     8    3.634460849107E+00  1.088790839521E+00  6.517317657120E-01
    21    22     8   -3.634460849107E+00 -8.236598303690E-01 -6.517317657120E-01
    23    23     8    1.892490377787E+00  3.001241509411E+00  8.941022407551E+00
    23    24     8    3.635458720723E+00  1.088790839521E+00  6.513791635960E-01
    25    25     8    5.080870772638E+00  3.018090027551E+00  6.809481898361E+00
    25    26     8    4.470783258720E-01  1.105639357661E+00  2.782919672786E+00
    27    27     8    4.460804542570E-01  1.105639357661E+00  2.783272274902E+00
    27    28     8   -4.460804542570E-01 -8.068113122290E-01 -2.783272274902E+00
    29    29     8    2.598580302527E+00  3.048078017831E+00  5.837596860293E+00
    29    30     8    2.929368795983E+00  1.135627347941E+00  3.754804710854E+00
    31    31     8    2.928370924368E+00  1.135627347941E+00  3.755157312970E+00
    31    32     8   -2.928370924368E+00 -7.768233219490E-01 -3.755157312970E+00
    33    33     8    4.662270587850E+00  3.092816019920E+00  4.154057238929E+00
    33    34     8    8.656785106600E-01  1.180365350030E+00  5.438344332218E+00
    35    35     8    8.646806390450E-01  1.180365350030E+00  5.438696934334E+00
    35    36     8   -8.646806390450E-01 -7.320853198600E-01 -5.438696934334E+00

 SPACE  GROUP  N.                     :    4
 NUMBER OF SYMMETRY OPERATORS         :    2
 *******************************************************************************
 LATTICE PARAMETERS (ANGSTROMS AND DEGREES) - BOHR = 0.5291772083 ANGSTROM
 PRIMITIVE CELL - CENTRING CODE 1/0 VOLUME=   406.218668 - DENSITY  6.111 g/cm^3
         A              B              C           ALPHA      BETA       GAMMA 
    11.07104884     3.82490134    11.07971514    90.000000 120.024747  90.000000
 *******************************************************************************
 ATOMS IN THE ASYMMETRIC UNIT   18 - ATOMS IN THE UNIT CELL:   36
     ATOM                 X/A                 Y/B                 Z/C    
 *******************************************************************************
      1 T  12 MG    4.970770114215E-01 -4.396807105429E-01 -2.514316869231E-01
      2 F  12 MG   -4.970770114215E-01  6.031928945709E-02  2.514316869231E-01
      3 F  12 MG   -4.971487463526E-01  6.031928945709E-02  2.514684336360E-01
      4 T  12 MG    4.971487463526E-01 -4.396807105429E-01 -2.514684336360E-01
      5 T  53 I    -1.663524234681E-01 -4.237327005345E-01 -7.937655941794E-02
      6 F  53 I     1.663524234681E-01  7.626729946550E-02  7.937655941794E-02
      7 F  53 I     1.662806885370E-01  7.626729946550E-02  7.941330613077E-02
      8 T  53 I    -1.662806885370E-01 -4.237327005345E-01 -7.941330613077E-02
      9 T  53 I    -3.331629015902E-01  7.603081658068E-02 -4.123691717206E-01
     10 F  53 I     3.331629015902E-01 -4.239691834193E-01  4.123691717206E-01
     11 F  53 I     3.330911666591E-01 -4.239691834193E-01  4.124059184334E-01
     12 T  53 I    -3.330911666591E-01  7.603081658068E-02 -4.124059184334E-01
     13 T   8 O    -3.213445869241E-01  3.021845965024E-01 -2.016102536121E-01
     14 F   8 O     3.213445869241E-01 -1.978154034976E-01  2.016102536121E-01
     15 F   8 O     3.212728519930E-01 -1.978154034976E-01  2.016470003250E-01
     16 T   8 O    -3.212728519930E-01  3.021845965024E-01 -2.016470003250E-01
     17 T   8 O     4.510486815924E-01  2.974720534597E-01 -1.165558659361E-01
     18 F   8 O    -4.510486815924E-01 -2.025279465403E-01  1.165558659361E-01
     19 F   8 O    -4.511204165235E-01 -2.025279465403E-01  1.165926126489E-01
     20 T   8 O     4.511204165235E-01  2.974720534597E-01 -1.165926126489E-01
     21 T   8 O     3.623188724392E-01  2.846585422210E-01  6.797443443203E-02
     22 F   8 O    -3.623188724392E-01 -2.153414577790E-01 -6.797443443203E-02
     23 F   8 O    -3.623906073703E-01 -2.153414577790E-01 -6.793768771920E-02
     24 T   8 O     3.623906073703E-01  2.846585422210E-01  6.793768771920E-02
     25 T   8 O    -1.856340368867E-01 -2.109365028159E-01 -2.901057607865E-01
     26 F   8 O     1.856340368867E-01  2.890634971841E-01  2.901057607865E-01
     27 F   8 O     1.855623019556E-01  2.890634971841E-01  2.901425074993E-01
     28 T   8 O    -1.855623019556E-01 -2.109365028159E-01 -2.901425074993E-01
     29 T   8 O    -4.605864750580E-01 -2.030963031307E-01 -3.914428140344E-01
     30 F   8 O     4.605864750580E-01  2.969036968693E-01  3.914428140344E-01
     31 F   8 O     4.605147401270E-01  2.969036968693E-01  3.914795607472E-01
     32 T   8 O    -4.605147401270E-01 -2.030963031307E-01 -3.914795607472E-01
     33 T   8 O    -3.620412673172E-01 -1.913997917400E-01  4.330792881636E-01
     34 F   8 O     3.620412673172E-01  3.086002082600E-01 -4.330792881636E-01
     35 F   8 O     3.619695323861E-01  3.086002082600E-01 -4.330425414508E-01
     36 T   8 O    -3.619695323861E-01 -1.913997917400E-01  4.330425414508E-01

 T = ATOM BELONGING TO THE ASYMMETRIC UNIT
 *******************************************************************************
 * GEOMETRY EDITING - INPUT COORDINATES ARE GIVEN IN ANGSTROM         
 *******************************************************************************

 GEOMETRY NOW FULLY CONSISTENT WITH THE GROUP

 GCALCO - MAX INDICES DIRECT LATTICE VECTOR    11    27    10
 NO.OF VECTORS CREATED 6999 STARS 1821 RMAX   166.27340 BOHR

 GEOMETRY FOR WAVE FUNCTION - DIMENSIONALITY OF THE SYSTEM    3
 (NON PERIODIC DIRECTION: LATTICE PARAMETER FORMALLY SET TO 500)
 *******************************************************************************
 LATTICE PARAMETERS (ANGSTROMS AND DEGREES) - BOHR = 0.5291772083 ANGSTROM
 PRIMITIVE CELL - CENTRING CODE 1/0 VOLUME=   406.218668 - DENSITY  6.111 g/cm^3
         A              B              C           ALPHA      BETA       GAMMA 
    11.07104884     3.82490134    11.07971514    90.000000 120.024747  90.000000
 *******************************************************************************
 ATOMS IN THE ASYMMETRIC UNIT   18 - ATOMS IN THE UNIT CELL:   36
     ATOM                 X/A                 Y/B                 Z/C    
 *******************************************************************************
      1 T  12 MG    4.970770114215E-01 -4.396807105429E-01 -2.514316869231E-01
      2 F  12 MG   -4.970770114215E-01  6.031928945709E-02  2.514316869231E-01
      3 F  12 MG   -4.971487463526E-01  6.031928945709E-02  2.514684336360E-01
      4 T  12 MG    4.971487463526E-01 -4.396807105429E-01 -2.514684336360E-01
      5 T  53 I    -1.663524234681E-01 -4.237327005345E-01 -7.937655941794E-02
      6 F  53 I     1.663524234681E-01  7.626729946550E-02  7.937655941794E-02
      7 F  53 I     1.662806885370E-01  7.626729946550E-02  7.941330613077E-02
      8 T  53 I    -1.662806885370E-01 -4.237327005345E-01 -7.941330613077E-02
      9 T  53 I    -3.331629015902E-01  7.603081658068E-02 -4.123691717206E-01
     10 F  53 I     3.331629015902E-01 -4.239691834193E-01  4.123691717206E-01
     11 F  53 I     3.330911666591E-01 -4.239691834193E-01  4.124059184334E-01
     12 T  53 I    -3.330911666591E-01  7.603081658068E-02 -4.124059184334E-01
     13 T   8 O    -3.213445869241E-01  3.021845965024E-01 -2.016102536121E-01
     14 F   8 O     3.213445869241E-01 -1.978154034976E-01  2.016102536121E-01
     15 F   8 O     3.212728519930E-01 -1.978154034976E-01  2.016470003250E-01
     16 T   8 O    -3.212728519930E-01  3.021845965024E-01 -2.016470003250E-01
     17 T   8 O     4.510486815924E-01  2.974720534597E-01 -1.165558659361E-01
     18 F   8 O    -4.510486815924E-01 -2.025279465403E-01  1.165558659361E-01
     19 F   8 O    -4.511204165235E-01 -2.025279465403E-01  1.165926126489E-01
     20 T   8 O     4.511204165235E-01  2.974720534597E-01 -1.165926126489E-01
     21 T   8 O     3.623188724392E-01  2.846585422210E-01  6.797443443203E-02
     22 F   8 O    -3.623188724392E-01 -2.153414577790E-01 -6.797443443203E-02
     23 F   8 O    -3.623906073703E-01 -2.153414577790E-01 -6.793768771920E-02
     24 T   8 O     3.623906073703E-01  2.846585422210E-01  6.793768771920E-02
     25 T   8 O    -1.856340368867E-01 -2.109365028159E-01 -2.901057607865E-01
     26 F   8 O     1.856340368867E-01  2.890634971841E-01  2.901057607865E-01
     27 F   8 O     1.855623019556E-01  2.890634971841E-01  2.901425074993E-01
     28 T   8 O    -1.855623019556E-01 -2.109365028159E-01 -2.901425074993E-01
     29 T   8 O    -4.605864750580E-01 -2.030963031307E-01 -3.914428140344E-01
     30 F   8 O     4.605864750580E-01  2.969036968693E-01  3.914428140344E-01
     31 F   8 O     4.605147401270E-01  2.969036968693E-01  3.914795607472E-01
     32 T   8 O    -4.605147401270E-01 -2.030963031307E-01 -3.914795607472E-01
     33 T   8 O    -3.620412673172E-01 -1.913997917400E-01  4.330792881636E-01
     34 F   8 O     3.620412673172E-01  3.086002082600E-01 -4.330792881636E-01
     35 F   8 O     3.619695323861E-01  3.086002082600E-01 -4.330425414508E-01
     36 T   8 O    -3.619695323861E-01 -1.913997917400E-01  4.330425414508E-01

 T = ATOM BELONGING TO THE ASYMMETRIC UNIT

 ****    2 SYMMOPS - TRANSLATORS IN FRACTIONAL UNITS
 **** MATRICES AND TRANSLATORS IN THE CRYSTALLOGRAPHIC REFERENCE FRAME
   V INV                    ROTATION MATRICES                   TRANSLATORS
   1   1  1.00  0.00  0.00  0.00  1.00  0.00  0.00  0.00  1.00  0.00  0.00  0.00
   2   2 -1.00  0.00  0.00  0.00  1.00  0.00 -0.00  0.00 -1.00  0.00  0.50  0.00

 DIRECT LATTICE VECTORS CARTESIAN COMPONENTS (ANGSTROM)
          X                    Y                    Z
   0.110710487945E+02   0.000000000000E+00  -0.104063774300E-02
   0.000000000000E+00   0.382490133978E+01  -0.000000000000E+00
  -0.554309969599E+01   0.000000000000E+00   0.959344220889E+01


 CARTESIAN COORDINATES - PRIMITIVE CELL
 *******************************************************************************
 *      ATOM          X(ANGSTROM)         Y(ANGSTROM)         Z(ANGSTROM)
 *******************************************************************************
    1    12 MG    1.353775059428E+00  2.143166000949E+00  7.180829573810E+00
    2    12 MG    4.174174039082E+00  2.307153310590E-01  2.411571997337E+00
    3    12 MG    4.173176167467E+00  2.307153310590E-01  2.411924599453E+00
    4    12 MG   -4.173176167467E+00 -1.681735338831E+00 -2.411924599453E+00
    5    53 I     4.126245483590E+00  2.204165565797E+00  8.831080248241E+00
    6    53 I     1.401703614920E+00  2.917148959070E-01  7.613213229060E-01
    7    53 I     1.400705743305E+00  2.917148959070E-01  7.616739250220E-01
    8    53 I    -1.400705743305E+00 -1.620735773983E+00 -7.616739250220E-01
    9    53 I     4.125289788888E+00  2.908103722040E-01  5.636708455408E+00
   10    53 I     1.402659309622E+00 -1.621640297686E+00  3.955693115739E+00
   11    53 I     1.401661438007E+00  2.203261042094E+00  3.956045717855E+00
   12    53 I    -1.401661438007E+00  2.908103722040E-01 -3.956045717855E+00
   13     8 O     3.087873232331E+00  1.155826268023E+00  7.658599657705E+00
   14     8 O     2.440075866179E+00 -7.566244018670E-01  1.933801913442E+00
   15     8 O     2.439077994564E+00  3.068276937913E+00  1.934154515558E+00
   16     8 O    -2.439077994564E+00  1.155826268023E+00 -1.934154515558E+00
   17     8 O     9.656305165100E-02  1.137801255825E+00  8.474800866643E+00
   18     8 O     5.431386046859E+00 -7.746494140650E-01  1.117600704504E+00
   19     8 O     5.430388175244E+00  3.050251925715E+00  1.117953306620E+00
   20     8 O    -5.430388175244E+00  1.137801255825E+00 -1.117953306620E+00
   21     8 O     3.634460849107E+00  1.088790839521E+00  6.517317657120E-01
   22     8 O    -3.634460849107E+00 -8.236598303690E-01 -6.517317657120E-01
   23     8 O     1.892490377787E+00  3.001241509411E+00  8.941022407551E+00
   24     8 O     3.635458720723E+00  1.088790839521E+00  6.513791635960E-01
   25     8 O     5.080870772638E+00  3.018090027551E+00  6.809481898361E+00
   26     8 O     4.470783258720E-01  1.105639357661E+00  2.782919672786E+00
   27     8 O     4.460804542570E-01  1.105639357661E+00  2.783272274902E+00
   28     8 O    -4.460804542570E-01 -8.068113122290E-01 -2.783272274902E+00
   29     8 O     2.598580302527E+00  3.048078017831E+00  5.837596860293E+00
   30     8 O     2.929368795983E+00  1.135627347941E+00  3.754804710854E+00
   31     8 O     2.928370924368E+00  1.135627347941E+00  3.755157312970E+00
   32     8 O    -2.928370924368E+00 -7.768233219490E-01 -3.755157312970E+00
   33     8 O     4.662270587850E+00  3.092816019920E+00  4.154057238929E+00
   34     8 O     8.656785106600E-01  1.180365350030E+00  5.438344332218E+00
   35     8 O     8.646806390450E-01  1.180365350030E+00  5.438696934334E+00
   36     8 O    -8.646806390450E-01 -7.320853198600E-01 -5.438696934334E+00
 WARNING **** CRYSTA **** TESTGEOM  DIRECTIVE - GEOMETRY EDITING COMPLETE
 TTTTTTTTTTTTTTTTTTTTTTTTTTTTTT END         TELAPSE        0.02 TCPU        0.02
 EEEEEEEEEE TERMINATION  DATE 31 07 2025 TIME 15:14:24.8
