
         
 *******************************************************************************
 *                                                                             *
 *                               CRYSTAL23                                     *
 *                      public : 1.0.1 - October 2022                          *
 *                       HTTP://WWW.CRYSTAL.UNITO.IT                           *
 *                                                                             *
 *                              MAIN AUTHORS                                   *
 *                                                                             *
 *  R. DOVESI(1,11), V.R. SAUNDERS(2), C. ROETTI(1,11), R. ORLANDO(1,11),      *
 *  C.M. ZICOVICH-WILSON(1,3), F. PASCALE(4), B. CIVALLERI(1,11),              *
 *  K. DOLL(5), N.M. HARRISON(6), I.J. BUSH(7), Ph. D'ARCO(8),                 *
 *  M. LLUNELL(9), M. CAUSA'(10), Y. NOEL(8), L. MASCHIO(1,11), A. ERBA(1,11)  *
 *  M. RE'RAT(14), S. CASASSA(1,11), B.G. SEARLE(2), J.K. DESMARAIS(1)         *
 *                                                                             *
 *        CONTRIBUTIONS TO THE CODE HAVE ALSO BEEN GIVEN BY                    *
 *                                                                             *
 *  M. FERRABONE(1,11), M. DE LA PIERRE(1,11), M. FERRERO(1,11),               *
 *  J. BAIMA(1,11), E. ALBANESE(1,11), M.F. PEINTINGER(12), R. BAST(13),       *
 *  B. KIRTMAN(15), V. LACIVITA(1,11), R. DEMICHELIS(1,16)                     *
 *  G. BRANDEBURG(17), S. SALUSTRO(1,11), G. SANSONE(1,11)                     *
 *  M.T. RUGGIERO(18), L.E. DAGA(1), L. DONA'(1), A. COSSARD(1)                *
 *                                                                             *
 * (1) THEORETICAL CHEMISTRY GROUP - UNIVERSITA' DI TORINO - TORINO (ITALY)    *
 * (2) SCIENTIFIC COMPUTING DEPARTMENT - STFC DARESBURY (UK)                   *
 * (3) UNIVERSIDAD AUTONOMA DEL ESTADO DE MORELOS - CUERNAVACA (MEXICO)        *
 * (4) UNIVERSITE' DE LORRAINE - NANCY (FRANCE)                                *
 * (5) UNIVERSITAET STUTTGART- STUTTGART (GERMANY)                             *
 * (6) IMPERIAL COLLEGE - LONDON (UK)                                          *
 * (7) SCIENTIFIC COMPUTING DEPARTMENT - STFC RAL (UK)                         *
 * (8) UPMC - SORBONNE UNIVERSITES - PARIS (FRANCE)                            *
 * (9) UNIVERSIDAD DE BARCELONA - BARCELONA (SPAIN)                            *
 *(10) UNIVERSITA' DI NAPOLI "FEDERICO II" - NAPOLI (ITALY)                    *
 *(11) NIS - NANOSTRUCTURED INTERFACES AND SURFACES - TORINO (ITALY)           *
 *(12) MPI FUER CHEMISCHE ENERGIEKONVERSION - MUELHEIM AN DER RUHR (GERMANY)   *
 *(13) UNIVERSITY OF TROMSO - TROMSO (NORWAY)                                  *
 *(14) UNIVERSITE' DE PAU ET DES PAYS DE L'ADOUR - PAU (FRANCE)                *
 *(15) UNIVERSITY OF CALIFORNIA SANTA BARBARA - SANTA BARBARA (USA)            *
 *(16) CURTIN UNIVERSITY - PERTH (AUSTRALIA)                                   *
 *(17) UNIVERSITY COLLEGE LONDON - LONDON (UK)                                 *
 *(18) UNIVERSITY OF VERMONT - BURLINGTON (USA)                                *
 *                                                                             *
 *******************************************************************************
 EEEEEEEEEE STARTING  DATE 31 07 2025 TIME 15:14:24.8
 Check                                                                           
 filename=fort.34                        0           0

 GEOMETRY INPUT FROM EXTERNAL FILE (FORTRAN UNIT 34)
 3D - CRYSTAL 

 *******************************************************************************
 LATTICE PARAMETERS  (ANGSTROMS AND DEGREES) - PRIMITIVE CELL
       A          B          C        ALPHA      BETA     GAMMA        VOLUME
   11.06331    3.77955   11.06930    90.00000 120.03220  90.00000    400.713883
 INFORMATION **** CHKGRP **** SPGR WITH NO INVERSION

 NUMBER OF IRREDUCIBLE ATOMS IN THE CELL:   18

 CARTESIAN COORDINATES (ANGSTROM) - IRREDUCIBLE ATOMS AND SYMMETRY RELATED

 AT.IRR.  AT  AT.N.          X                   Y                   Z
     1     1    12    4.167252049659E+00  2.112167640717E+00  2.409362560532E+00
     1     2    12   -4.167252049659E+00  2.223941932070E-01 -2.409362560532E+00
     3     3    12    1.357217699039E+00  2.223941932070E-01  7.175889295863E+00
     3     4    12    4.167288231601E+00 -1.667379254303E+00  2.406579736844E+00
     5     5    53    1.397876502587E+00  2.196358302560E+00  7.635007622360E-01
     5     6    53   -1.397876502587E+00  3.065848550500E-01 -7.635007622360E-01
     7     7    53    4.126593246111E+00  3.065848550500E-01  8.821751094158E+00
     7     8    53    1.397912684529E+00 -1.583188592460E+00  7.607179385490E-01
     9     9    53    1.399040822125E+00  3.057283639840E-01  3.956005146370E+00
     9    10    53   -1.399040822125E+00 -1.584045083526E+00 -3.956005146370E+00
    11    11    53    4.125428926574E+00  2.195501811494E+00  5.629246710025E+00
    11    12    53    1.399077004066E+00  3.057283639840E-01  3.953222322682E+00
    13    13     8    2.429075509106E+00  1.134831374537E+00  1.934199606075E+00
    13    14     8   -2.429075509106E+00 -7.549420729730E-01 -1.934199606075E+00
    15    15     8    3.095394239593E+00  3.024604822047E+00  7.651052250320E+00
    15    16     8    2.429111691047E+00  1.134831374537E+00  1.931416782387E+00
    17    17     8    5.425358781829E+00  1.118830917366E+00  1.111491929315E+00
    17    18     8   -5.425358781829E+00 -7.709425301440E-01 -1.111491929315E+00
    19    19     8    9.911096687000E-02  3.008604364876E+00  8.473759927080E+00
    19    20     8    5.425394963770E+00  1.118830917366E+00  1.108709105627E+00
    21    21     8    1.895189544392E+00  1.074813088495E+00  8.937963461735E+00
    21    22     8    3.629316386248E+00 -8.149603590150E-01  6.445055709720E-01
    23    23     8    3.629280204306E+00  2.964586536005E+00  6.472883946600E-01
    23    24     8   -3.629280204306E+00  1.074813088495E+00 -6.472883946600E-01
    25    25     8    4.449704123870E-01  2.980357442011E+00  2.785116277723E+00
    25    26     8   -4.449704123870E-01  1.090583994501E+00 -2.785116277723E+00
    27    27     8    5.079499336312E+00  1.090583994501E+00  6.800135578672E+00
    27    28     8    4.450065943280E-01 -7.991894530090E-01  2.782333454035E+00
    29    29     8    2.920205199311E+00  3.006242590427E+00  3.752418678289E+00
    29    30     8   -2.920205199311E+00  1.116469142917E+00 -3.752418678289E+00
    31    31     8    2.604264549388E+00  1.116469142917E+00  5.832833178106E+00
    31    32     8    2.920241381252E+00 -7.733043045930E-01  3.749635854601E+00
    33    33     8    8.649067029630E-01  3.046505158885E+00  5.432310862912E+00
    33    34     8   -8.649067029630E-01  1.156731711375E+00 -5.432310862912E+00
    35    35     8    4.659563045736E+00  1.156731711375E+00  4.152940993483E+00
    35    36     8    8.649428849040E-01 -7.330417361350E-01  5.429528039224E+00

 SPACE  GROUP  N.                     :    4
 NUMBER OF SYMMETRY OPERATORS         :    2
 *******************************************************************************
 LATTICE PARAMETERS (ANGSTROMS AND DEGREES) - BOHR = 0.5291772083 ANGSTROM
 PRIMITIVE CELL - CENTRING CODE 1/0 VOLUME=   400.713883 - DENSITY  6.195 g/cm^3
         A              B              C           ALPHA      BETA       GAMMA 
    11.06330959     3.77954690    11.06929529    90.000000 120.032203  90.000000
 *******************************************************************************
 ATOMS IN THE ASYMMETRIC UNIT   18 - ATOMS IN THE UNIT CELL:   36
     ATOM                 X/A                 Y/B                 Z/C    
 *******************************************************************************
      1 T  12 MG   -4.974284862319E-01 -4.411585040789E-01  2.514716646069E-01
      2 F  12 MG    4.974284862319E-01  5.884149592112E-02 -2.514716646069E-01
      3 F  12 MG    4.975705963276E-01  5.884149592112E-02 -2.511812788055E-01
      4 T  12 MG   -4.975705963276E-01 -4.411585040789E-01  2.511812788055E-01
      5 T  53 I     1.662487997314E-01 -4.188831720929E-01  7.968966898388E-02
      6 F  53 I    -1.662487997314E-01  8.111682790706E-02 -7.968966898388E-02
      7 F  53 I    -1.661066896357E-01  8.111682790706E-02 -7.939928318256E-02
      8 T  53 I     1.661066896357E-01 -4.188831720929E-01  7.939928318256E-02
      9 T  53 I     3.331374460261E-01  8.089021580519E-02  4.128259506798E-01
     10 F  53 I    -3.331374460261E-01 -4.191097841948E-01 -4.128259506798E-01
     11 F  53 I    -3.329953359303E-01 -4.191097841948E-01 -4.125355648784E-01
     12 T  53 I     3.329953359303E-01  8.089021580519E-02  4.125355648784E-01
     13 T   8 O     3.206244920375E-01  3.002559317447E-01  2.018653425437E-01
     14 F   8 O    -3.206244920375E-01 -1.997440682553E-01 -2.018653425437E-01
     15 F   8 O    -3.204823819417E-01 -1.997440682553E-01 -2.015749567423E-01
     16 T   8 O     3.204823819417E-01  3.002559317447E-01  2.015749567423E-01
     17 T   8 O    -4.515047963164E-01  2.960224991097E-01  1.160563664264E-01
     18 F   8 O     4.515047963164E-01 -2.039775008903E-01 -1.160563664264E-01
     19 F   8 O     4.516469064122E-01 -2.039775008903E-01 -1.157659806250E-01
     20 T   8 O    -4.516469064122E-01  2.960224991097E-01  1.157659806250E-01
     21 T   8 O    -3.617445278066E-01  2.843761748032E-01 -6.730249244249E-02
     22 F   8 O     3.617445278066E-01 -2.156238251968E-01  6.730249244249E-02
     23 F   8 O     3.618866379023E-01 -2.156238251968E-01  6.759287824391E-02
     24 T   8 O    -3.618866379023E-01  2.843761748032E-01 -6.759287824391E-02
     25 T   8 O     1.857239104447E-01 -2.114511276635E-01  2.906314820621E-01
     26 F   8 O    -1.857239104447E-01  2.885488723365E-01 -2.906314820621E-01
     27 F   8 O    -1.855818003489E-01  2.885488723365E-01 -2.903410962606E-01
     28 T   8 O     1.855818003489E-01 -2.114511276635E-01  2.903410962606E-01
     29 T   8 O     4.600081766935E-01 -2.046023838497E-01  3.916021943996E-01
     30 F   8 O    -4.600081766935E-01  2.953976161503E-01 -3.916021943996E-01
     31 F   8 O    -4.598660665977E-01  2.953976161503E-01 -3.913118085982E-01
     32 T   8 O     4.598660665977E-01 -2.046023838497E-01  3.913118085982E-01
     33 T   8 O     3.619795167505E-01 -1.939496337778E-01 -4.331294324125E-01
     34 F   8 O    -3.619795167505E-01  3.060503662222E-01  4.331294324125E-01
     35 F   8 O    -3.618374066547E-01  3.060503662222E-01  4.334198182139E-01
     36 T   8 O     3.618374066547E-01 -1.939496337778E-01 -4.334198182139E-01

 T = ATOM BELONGING TO THE ASYMMETRIC UNIT
 *******************************************************************************
 * GEOMETRY EDITING - INPUT COORDINATES ARE GIVEN IN ANGSTROM         
 *******************************************************************************

 GEOMETRY NOW FULLY CONSISTENT WITH THE GROUP

 GCALCO - MAX INDICES DIRECT LATTICE VECTOR    11    27    10
 NO.OF VECTORS CREATED 6999 STARS 1818 RMAX   165.71221 BOHR

 GEOMETRY FOR WAVE FUNCTION - DIMENSIONALITY OF THE SYSTEM    3
 (NON PERIODIC DIRECTION: LATTICE PARAMETER FORMALLY SET TO 500)
 *******************************************************************************
 LATTICE PARAMETERS (ANGSTROMS AND DEGREES) - BOHR = 0.5291772083 ANGSTROM
 PRIMITIVE CELL - CENTRING CODE 1/0 VOLUME=   400.713883 - DENSITY  6.195 g/cm^3
         A              B              C           ALPHA      BETA       GAMMA 
    11.06330959     3.77954690    11.06929529    90.000000 120.032203  90.000000
 *******************************************************************************
 ATOMS IN THE ASYMMETRIC UNIT   18 - ATOMS IN THE UNIT CELL:   36
     ATOM                 X/A                 Y/B                 Z/C    
 *******************************************************************************
      1 T  12 MG   -4.974284862319E-01 -4.411585040789E-01  2.514716646069E-01
      2 F  12 MG    4.974284862319E-01  5.884149592112E-02 -2.514716646069E-01
      3 F  12 MG    4.975705963276E-01  5.884149592112E-02 -2.511812788055E-01
      4 T  12 MG   -4.975705963276E-01 -4.411585040789E-01  2.511812788055E-01
      5 T  53 I     1.662487997314E-01 -4.188831720929E-01  7.968966898388E-02
      6 F  53 I    -1.662487997314E-01  8.111682790706E-02 -7.968966898388E-02
      7 F  53 I    -1.661066896357E-01  8.111682790706E-02 -7.939928318256E-02
      8 T  53 I     1.661066896357E-01 -4.188831720929E-01  7.939928318256E-02
      9 T  53 I     3.331374460261E-01  8.089021580519E-02  4.128259506798E-01
     10 F  53 I    -3.331374460261E-01 -4.191097841948E-01 -4.128259506798E-01
     11 F  53 I    -3.329953359303E-01 -4.191097841948E-01 -4.125355648784E-01
     12 T  53 I     3.329953359303E-01  8.089021580519E-02  4.125355648784E-01
     13 T   8 O     3.206244920375E-01  3.002559317447E-01  2.018653425437E-01
     14 F   8 O    -3.206244920375E-01 -1.997440682553E-01 -2.018653425437E-01
     15 F   8 O    -3.204823819417E-01 -1.997440682553E-01 -2.015749567423E-01
     16 T   8 O     3.204823819417E-01  3.002559317447E-01  2.015749567423E-01
     17 T   8 O    -4.515047963164E-01  2.960224991097E-01  1.160563664264E-01
     18 F   8 O     4.515047963164E-01 -2.039775008903E-01 -1.160563664264E-01
     19 F   8 O     4.516469064122E-01 -2.039775008903E-01 -1.157659806250E-01
     20 T   8 O    -4.516469064122E-01  2.960224991097E-01  1.157659806250E-01
     21 T   8 O    -3.617445278066E-01  2.843761748032E-01 -6.730249244249E-02
     22 F   8 O     3.617445278066E-01 -2.156238251968E-01  6.730249244249E-02
     23 F   8 O     3.618866379023E-01 -2.156238251968E-01  6.759287824391E-02
     24 T   8 O    -3.618866379023E-01  2.843761748032E-01 -6.759287824391E-02
     25 T   8 O     1.857239104447E-01 -2.114511276635E-01  2.906314820621E-01
     26 F   8 O    -1.857239104447E-01  2.885488723365E-01 -2.906314820621E-01
     27 F   8 O    -1.855818003489E-01  2.885488723365E-01 -2.903410962606E-01
     28 T   8 O     1.855818003489E-01 -2.114511276635E-01  2.903410962606E-01
     29 T   8 O     4.600081766935E-01 -2.046023838497E-01  3.916021943996E-01
     30 F   8 O    -4.600081766935E-01  2.953976161503E-01 -3.916021943996E-01
     31 F   8 O    -4.598660665977E-01  2.953976161503E-01 -3.913118085982E-01
     32 T   8 O     4.598660665977E-01 -2.046023838497E-01  3.913118085982E-01
     33 T   8 O     3.619795167505E-01 -1.939496337778E-01 -4.331294324125E-01
     34 F   8 O    -3.619795167505E-01  3.060503662222E-01  4.331294324125E-01
     35 F   8 O    -3.618374066547E-01  3.060503662222E-01  4.334198182139E-01
     36 T   8 O     3.618374066547E-01 -1.939496337778E-01 -4.334198182139E-01

 T = ATOM BELONGING TO THE ASYMMETRIC UNIT

 ****    2 SYMMOPS - TRANSLATORS IN FRACTIONAL UNITS
 **** MATRICES AND TRANSLATORS IN THE CRYSTALLOGRAPHIC REFERENCE FRAME
   V INV                    ROTATION MATRICES                   TRANSLATORS
   1   1  1.00  0.00  0.00  0.00  1.00  0.00  0.00  0.00  1.00  0.00  0.00  0.00
   2   2 -1.00  0.00  0.00  0.00  1.00  0.00  0.00  0.00 -1.00  0.00  0.50  0.00

 DIRECT LATTICE VECTORS CARTESIAN COMPONENTS (ANGSTROM)
          X                    Y                    Z
   0.110633095019E+02   0.000000000000E+00  -0.142125998300E-02
   0.000000000000E+00   0.377954689502E+01  -0.000000000000E+00
  -0.553880357126E+01   0.000000000000E+00   0.958389029269E+01


 CARTESIAN COORDINATES - PRIMITIVE CELL
 *******************************************************************************
 *      ATOM          X(ANGSTROM)         Y(ANGSTROM)         Z(ANGSTROM)
 *******************************************************************************
    1    12 MG    4.167252049659E+00  2.112167640717E+00  2.409362560532E+00
    2    12 MG   -4.167252049659E+00  2.223941932070E-01 -2.409362560532E+00
    3    12 MG    1.357217699039E+00  2.223941932070E-01  7.175889295863E+00
    4    12 MG    4.167288231601E+00 -1.667379254303E+00  2.406579736844E+00
    5    53 I     1.397876502587E+00  2.196358302560E+00  7.635007622360E-01
    6    53 I    -1.397876502587E+00  3.065848550500E-01 -7.635007622360E-01
    7    53 I     4.126593246111E+00  3.065848550500E-01  8.821751094158E+00
    8    53 I     1.397912684529E+00 -1.583188592460E+00  7.607179385490E-01
    9    53 I     1.399040822125E+00  3.057283639840E-01  3.956005146370E+00
   10    53 I    -1.399040822125E+00 -1.584045083526E+00 -3.956005146370E+00
   11    53 I     4.125428926574E+00  2.195501811494E+00  5.629246710025E+00
   12    53 I     1.399077004066E+00  3.057283639840E-01  3.953222322682E+00
   13     8 O     2.429075509106E+00  1.134831374537E+00  1.934199606075E+00
   14     8 O    -2.429075509106E+00 -7.549420729730E-01 -1.934199606075E+00
   15     8 O     3.095394239593E+00  3.024604822047E+00  7.651052250320E+00
   16     8 O     2.429111691047E+00  1.134831374537E+00  1.931416782387E+00
   17     8 O     5.425358781829E+00  1.118830917366E+00  1.111491929315E+00
   18     8 O    -5.425358781829E+00 -7.709425301440E-01 -1.111491929315E+00
   19     8 O     9.911096687000E-02  3.008604364876E+00  8.473759927080E+00
   20     8 O     5.425394963770E+00  1.118830917366E+00  1.108709105627E+00
   21     8 O     1.895189544392E+00  1.074813088495E+00  8.937963461735E+00
   22     8 O     3.629316386248E+00 -8.149603590150E-01  6.445055709720E-01
   23     8 O     3.629280204306E+00  2.964586536005E+00  6.472883946600E-01
   24     8 O    -3.629280204306E+00  1.074813088495E+00 -6.472883946600E-01
   25     8 O     4.449704123870E-01  2.980357442011E+00  2.785116277723E+00
   26     8 O    -4.449704123870E-01  1.090583994501E+00 -2.785116277723E+00
   27     8 O     5.079499336312E+00  1.090583994501E+00  6.800135578672E+00
   28     8 O     4.450065943280E-01 -7.991894530090E-01  2.782333454035E+00
   29     8 O     2.920205199311E+00  3.006242590427E+00  3.752418678289E+00
   30     8 O    -2.920205199311E+00  1.116469142917E+00 -3.752418678289E+00
   31     8 O     2.604264549388E+00  1.116469142917E+00  5.832833178106E+00
   32     8 O     2.920241381252E+00 -7.733043045930E-01  3.749635854601E+00
   33     8 O     8.649067029630E-01  3.046505158885E+00  5.432310862912E+00
   34     8 O    -8.649067029630E-01  1.156731711375E+00 -5.432310862912E+00
   35     8 O     4.659563045736E+00  1.156731711375E+00  4.152940993483E+00
   36     8 O     8.649428849040E-01 -7.330417361350E-01  5.429528039224E+00
 WARNING **** CRYSTA **** TESTGEOM  DIRECTIVE - GEOMETRY EDITING COMPLETE
 TTTTTTTTTTTTTTTTTTTTTTTTTTTTTT END         TELAPSE        0.02 TCPU        0.02
 EEEEEEEEEE TERMINATION  DATE 31 07 2025 TIME 15:14:24.8
