
         
 *******************************************************************************
 *                                                                             *
 *                               CRYSTAL23                                     *
 *                      public : 1.0.1 - October 2022                          *
 *                       HTTP://WWW.CRYSTAL.UNITO.IT                           *
 *                                                                             *
 *                              MAIN AUTHORS                                   *
 *                                                                             *
 *  R. DOVESI(1,11), V.R. SAUNDERS(2), C. ROETTI(1,11), R. ORLANDO(1,11),      *
 *  C.M. ZICOVICH-WILSON(1,3), F. PASCALE(4), B. CIVALLERI(1,11),              *
 *  K. DOLL(5), N.M. HARRISON(6), I.J. BUSH(7), Ph. D'ARCO(8),                 *
 *  M. LLUNELL(9), M. CAUSA'(10), Y. NOEL(8), L. MASCHIO(1,11), A. ERBA(1,11)  *
 *  M. RE'RAT(14), S. CASASSA(1,11), B.G. SEARLE(2), J.K. DESMARAIS(1)         *
 *                                                                             *
 *        CONTRIBUTIONS TO THE CODE HAVE ALSO BEEN GIVEN BY                    *
 *                                                                             *
 *  M. FERRABONE(1,11), M. DE LA PIERRE(1,11), M. FERRERO(1,11),               *
 *  J. BAIMA(1,11), E. ALBANESE(1,11), M.F. PEINTINGER(12), R. BAST(13),       *
 *  B. KIRTMAN(15), V. LACIVITA(1,11), R. DEMICHELIS(1,16)                     *
 *  G. BRANDEBURG(17), S. SALUSTRO(1,11), G. SANSONE(1,11)                     *
 *  M.T. RUGGIERO(18), L.E. DAGA(1), L. DONA'(1), A. COSSARD(1)                *
 *                                                                             *
 * (1) THEORETICAL CHEMISTRY GROUP - UNIVERSITA' DI TORINO - TORINO (ITALY)    *
 * (2) SCIENTIFIC COMPUTING DEPARTMENT - STFC DARESBURY (UK)                   *
 * (3) UNIVERSIDAD AUTONOMA DEL ESTADO DE MORELOS - CUERNAVACA (MEXICO)        *
 * (4) UNIVERSITE' DE LORRAINE - NANCY (FRANCE)                                *
 * (5) UNIVERSITAET STUTTGART- STUTTGART (GERMANY)                             *
 * (6) IMPERIAL COLLEGE - LONDON (UK)                                          *
 * (7) SCIENTIFIC COMPUTING DEPARTMENT - STFC RAL (UK)                         *
 * (8) UPMC - SORBONNE UNIVERSITES - PARIS (FRANCE)                            *
 * (9) UNIVERSIDAD DE BARCELONA - BARCELONA (SPAIN)                            *
 *(10) UNIVERSITA' DI NAPOLI "FEDERICO II" - NAPOLI (ITALY)                    *
 *(11) NIS - NANOSTRUCTURED INTERFACES AND SURFACES - TORINO (ITALY)           *
 *(12) MPI FUER CHEMISCHE ENERGIEKONVERSION - MUELHEIM AN DER RUHR (GERMANY)   *
 *(13) UNIVERSITY OF TROMSO - TROMSO (NORWAY)                                  *
 *(14) UNIVERSITE' DE PAU ET DES PAYS DE L'ADOUR - PAU (FRANCE)                *
 *(15) UNIVERSITY OF CALIFORNIA SANTA BARBARA - SANTA BARBARA (USA)            *
 *(16) CURTIN UNIVERSITY - PERTH (AUSTRALIA)                                   *
 *(17) UNIVERSITY COLLEGE LONDON - LONDON (UK)                                 *
 *(18) UNIVERSITY OF VERMONT - BURLINGTON (USA)                                *
 *                                                                             *
 *******************************************************************************
 EEEEEEEEEE STARTING  DATE 31 07 2025 TIME 12:14:58.3
 Check                                                                           
 filename=fort.34                        0           0

 GEOMETRY INPUT FROM EXTERNAL FILE (FORTRAN UNIT 34)
 3D - CRYSTAL 

 *******************************************************************************
 LATTICE PARAMETERS  (ANGSTROMS AND DEGREES) - PRIMITIVE CELL
       A          B          C        ALPHA      BETA     GAMMA        VOLUME
   10.94180    4.54438   11.00577    90.00000 119.88701  90.00000    474.468648
 INFORMATION **** CHKGRP **** SPGR WITH NO INVERSION

 NUMBER OF IRREDUCIBLE ATOMS IN THE CELL:   18

 CARTESIAN COORDINATES (ANGSTROM) - IRREDUCIBLE ATOMS AND SYMMETRY RELATED

 AT.IRR.  AT  AT.N.          X                   Y                   Z
     1     1    12   -6.773911903874E+00  1.948619561744E+00  2.436258468209E+00
     1     2    12    6.773911903874E+00 -3.235693507860E-01 -2.436258468209E+00
     3     3    12   -1.436436872659E+00 -3.239026799940E-01  2.339641085110E+00
     3     4    12    1.436436872659E+00  1.948286232536E+00 -2.339641085110E+00
     5     5    53    1.310131127350E+00  2.157042079316E+00  8.844040619360E-01
     5     6    53   -1.310131127350E+00 -1.151468332140E-01 -8.844040619360E-01
     7     7    53    1.421482899060E+00 -1.151645583240E-01  3.884932977932E+00
     7     8    53   -1.421482899060E+00  2.157024354206E+00 -3.884932977932E+00
     9     9    53   -4.167232412268E+00 -1.003144582920E-01  4.092486978674E+00
     9    10    53    4.167232412268E+00  2.171874454238E+00 -4.092486978674E+00
    11    11    53   -4.043017110016E+00  2.171810617706E+00  6.832251307300E-01
    11    12    53    4.043017110016E+00 -1.003782948240E-01 -6.832251307300E-01
    13    13     8    2.903713991149E+00 -1.487363983857E+00  1.247375183673E+00
    13    14     8   -2.903713991149E+00  7.848249286730E-01 -1.247375183673E+00
    15    15     8    9.616338843650E-01 -1.437187974695E+00 -6.762964586190E-01
    15    16     8   -9.616338843650E-01  8.350009378350E-01  6.762964586190E-01
    17    17     8    3.057107691050E-01 -1.303878598845E+00  2.000596980134E+00
    17    18     8   -3.057107691050E-01  9.683103136850E-01 -2.000596980134E+00
    19    19     8    2.426000850287E+00  9.680512280880E-01  2.768636250970E+00
    19    20     8   -2.426000850287E+00 -1.304137684442E+00 -2.768636250970E+00
    21    21     8   -1.720920322720E-01  7.848424773880E-01  3.522049500631E+00
    21    22     8    1.720920322720E-01 -1.487346435142E+00 -3.522049500631E+00
    23    23     8    7.248608061289E+00  8.349670118180E-01 -4.099633601832E+00
    23    24     8   -7.248608061289E+00 -1.437221900712E+00  4.099633601832E+00
    25    25     8   -5.677159946536E+00  9.556479797200E-01  3.876167844316E+00
    25    26     8    5.677159946536E+00 -1.316540932810E+00 -3.876167844316E+00
    27    27     8    2.019462450389E+00  8.568384312870E-01 -4.022765662470E+00
    27    28     8   -2.019462450389E+00 -1.415350481243E+00  4.022765662470E+00
    29    29     8   -3.136507819416E+00  7.218299708650E-01  2.787102807801E+00
    29    30     8    3.136507819416E+00 -1.550358941665E+00 -2.787102807801E+00
    31    31     8   -5.073680677433E+00 -1.550466114028E+00  1.988682421274E+00
    31    32     8    5.073680677433E+00  7.217227985020E-01 -1.988682421274E+00
    33    33     8   -2.533061567180E+00 -1.316644623610E+00  8.996663500800E-01
    33    34     8    2.533061567180E+00  9.555442889200E-01 -8.996663500800E-01
    35    35     8   -4.751088134103E+00 -1.415283030730E+00 -7.467479292790E-01
    35    36     8    4.751088134103E+00  8.569058818000E-01  7.467479292790E-01

 SPACE  GROUP  N.                     :    4
 NUMBER OF SYMMETRY OPERATORS         :    2
 *******************************************************************************
 LATTICE PARAMETERS (ANGSTROMS AND DEGREES) - BOHR = 0.5291772083 ANGSTROM
 PRIMITIVE CELL - CENTRING CODE 1/0 VOLUME=   474.468648 - DENSITY  5.232 g/cm^3
         A              B              C           ALPHA      BETA       GAMMA 
    10.94180071     4.54437783    11.00576722    90.000000 119.887013  90.000000
 *******************************************************************************
 ATOMS IN THE ASYMMETRIC UNIT   18 - ATOMS IN THE UNIT CELL:   36
     ATOM                 X/A                 Y/B                 Z/C    
 *******************************************************************************
      1 T  12 MG   -4.914545885466E-01  4.287978765758E-01  2.549057098776E-01
      2 F  12 MG    4.914545885466E-01 -7.120212342417E-02 -2.549057098776E-01
      3 T  12 MG   -8.556273042948E-03 -7.127547322492E-02  2.451040749702E-01
      4 F  12 MG    8.556273042948E-03  4.287245267751E-01 -2.451040749702E-01
      5 T  53 I     1.661831515168E-01  4.746616945935E-01  9.276380501737E-02
      6 F  53 I    -1.661831515168E-01 -2.533830540652E-02 -9.276380501737E-02
      7 T  53 I     3.338089131025E-01 -2.534220585466E-02  4.072219030831E-01
      8 F  53 I    -3.338089131025E-01  4.746577941453E-01 -4.072219030831E-01
      9 T  53 I    -1.662374112320E-01 -2.207440977702E-02  4.286343059016E-01
     10 F  53 I     1.662374112320E-01  4.779255902230E-01 -4.286343059016E-01
     11 T  53 I    -3.337742119097E-01  4.779115428584E-01  7.135584109937E-02
     12 F  53 I     3.337742119097E-01 -2.208845714158E-02 -7.135584109937E-02
     13 T   8 O     3.309193584350E-01 -3.272976062102E-01  1.308993402716E-01
     14 F   8 O    -3.309193584350E-01  1.727023937898E-01 -1.308993402716E-01
     15 T   8 O     5.242841887984E-02 -3.162562687393E-01 -7.081662163864E-02
     16 F   8 O    -5.242841887984E-02  1.837437312607E-01  7.081662163864E-02
     17 T   8 O     1.329255885706E-01 -2.869212572191E-01  2.096783814212E-01
     18 F   8 O    -1.329255885706E-01  2.130787427809E-01 -2.096783814212E-01
     19 T   8 O     3.670699511747E-01  2.130217304445E-01  2.902964535815E-01
     20 F   8 O    -3.670699511747E-01 -2.869782695555E-01 -2.902964535815E-01
     21 T   8 O     1.690780303285E-01  1.727062554218E-01  3.690955533276E-01
     22 F   8 O    -1.690780303285E-01 -3.272937445782E-01 -3.690955533276E-01
     23 T   8 O     4.475710751187E-01  1.837362657686E-01 -4.291963667947E-01
     24 F   8 O    -4.475710751187E-01 -3.162637342314E-01  4.291963667947E-01
     25 T   8 O    -3.156303797201E-01  2.102923692766E-01  4.058727731797E-01
     26 F   8 O     3.156303797201E-01 -2.897076307234E-01 -4.058727731797E-01
     27 T   8 O    -2.645974295273E-02  1.885491181129E-01 -4.214578761632E-01
     28 F   8 O     2.645974295273E-02 -3.114508818871E-01  4.214578761632E-01
     29 T   8 O    -1.405023985088E-01  1.588402194211E-01  2.918943392994E-01
     30 F   8 O     1.405023985088E-01 -3.411597805789E-01 -2.918943392994E-01
     31 T   8 O    -3.594998087219E-01 -3.411833640852E-01  2.081034742449E-01
     32 F   8 O     3.594998087219E-01  1.588166359148E-01 -2.081034742449E-01
     33 T   8 O    -1.843722766731E-01 -2.897304481043E-01  9.413016986096E-02
     34 F   8 O     1.843722766731E-01  2.102695518957E-01 -9.413016986096E-02
     35 T   8 O    -4.735426515541E-01 -3.114360392583E-01 -7.854633504100E-02
     36 F   8 O     4.735426515541E-01  1.885639607417E-01  7.854633504100E-02

 T = ATOM BELONGING TO THE ASYMMETRIC UNIT
 *******************************************************************************
 * GEOMETRY EDITING - INPUT COORDINATES ARE GIVEN IN ANGSTROM         
 *******************************************************************************

 GEOMETRY NOW FULLY CONSISTENT WITH THE GROUP

 GCALCO - MAX INDICES DIRECT LATTICE VECTOR    11    25    11
 NO.OF VECTORS CREATED 6999 STARS 1824 RMAX   174.70902 BOHR

 GEOMETRY FOR WAVE FUNCTION - DIMENSIONALITY OF THE SYSTEM    3
 (NON PERIODIC DIRECTION: LATTICE PARAMETER FORMALLY SET TO 500)
 *******************************************************************************
 LATTICE PARAMETERS (ANGSTROMS AND DEGREES) - BOHR = 0.5291772083 ANGSTROM
 PRIMITIVE CELL - CENTRING CODE 1/0 VOLUME=   474.468648 - DENSITY  5.232 g/cm^3
         A              B              C           ALPHA      BETA       GAMMA 
    10.94180071     4.54437783    11.00576722    90.000000 119.887013  90.000000
 *******************************************************************************
 ATOMS IN THE ASYMMETRIC UNIT   18 - ATOMS IN THE UNIT CELL:   36
     ATOM                 X/A                 Y/B                 Z/C    
 *******************************************************************************
      1 T  12 MG   -4.914545885466E-01  4.287978765758E-01  2.549057098776E-01
      2 F  12 MG    4.914545885466E-01 -7.120212342417E-02 -2.549057098776E-01
      3 T  12 MG   -8.556273042948E-03 -7.127547322492E-02  2.451040749702E-01
      4 F  12 MG    8.556273042948E-03  4.287245267751E-01 -2.451040749702E-01
      5 T  53 I     1.661831515168E-01  4.746616945935E-01  9.276380501737E-02
      6 F  53 I    -1.661831515168E-01 -2.533830540652E-02 -9.276380501737E-02
      7 T  53 I     3.338089131025E-01 -2.534220585466E-02  4.072219030831E-01
      8 F  53 I    -3.338089131025E-01  4.746577941453E-01 -4.072219030831E-01
      9 T  53 I    -1.662374112320E-01 -2.207440977702E-02  4.286343059016E-01
     10 F  53 I     1.662374112320E-01  4.779255902230E-01 -4.286343059016E-01
     11 T  53 I    -3.337742119097E-01  4.779115428584E-01  7.135584109937E-02
     12 F  53 I     3.337742119097E-01 -2.208845714158E-02 -7.135584109937E-02
     13 T   8 O     3.309193584350E-01 -3.272976062102E-01  1.308993402716E-01
     14 F   8 O    -3.309193584350E-01  1.727023937898E-01 -1.308993402716E-01
     15 T   8 O     5.242841887984E-02 -3.162562687393E-01 -7.081662163864E-02
     16 F   8 O    -5.242841887984E-02  1.837437312607E-01  7.081662163864E-02
     17 T   8 O     1.329255885706E-01 -2.869212572191E-01  2.096783814212E-01
     18 F   8 O    -1.329255885706E-01  2.130787427809E-01 -2.096783814212E-01
     19 T   8 O     3.670699511747E-01  2.130217304445E-01  2.902964535815E-01
     20 F   8 O    -3.670699511747E-01 -2.869782695555E-01 -2.902964535815E-01
     21 T   8 O     1.690780303285E-01  1.727062554218E-01  3.690955533276E-01
     22 F   8 O    -1.690780303285E-01 -3.272937445782E-01 -3.690955533276E-01
     23 T   8 O     4.475710751187E-01  1.837362657686E-01 -4.291963667947E-01
     24 F   8 O    -4.475710751187E-01 -3.162637342314E-01  4.291963667947E-01
     25 T   8 O    -3.156303797201E-01  2.102923692766E-01  4.058727731797E-01
     26 F   8 O     3.156303797201E-01 -2.897076307234E-01 -4.058727731797E-01
     27 T   8 O    -2.645974295273E-02  1.885491181129E-01 -4.214578761632E-01
     28 F   8 O     2.645974295273E-02 -3.114508818871E-01  4.214578761632E-01
     29 T   8 O    -1.405023985088E-01  1.588402194211E-01  2.918943392994E-01
     30 F   8 O     1.405023985088E-01 -3.411597805789E-01 -2.918943392994E-01
     31 T   8 O    -3.594998087219E-01 -3.411833640852E-01  2.081034742449E-01
     32 F   8 O     3.594998087219E-01  1.588166359148E-01 -2.081034742449E-01
     33 T   8 O    -1.843722766731E-01 -2.897304481043E-01  9.413016986096E-02
     34 F   8 O     1.843722766731E-01  2.102695518957E-01 -9.413016986096E-02
     35 T   8 O    -4.735426515541E-01 -3.114360392583E-01 -7.854633504100E-02
     36 F   8 O     4.735426515541E-01  1.885639607417E-01  7.854633504100E-02

 T = ATOM BELONGING TO THE ASYMMETRIC UNIT

 ****    2 SYMMOPS - TRANSLATORS IN FRACTIONAL UNITS
 **** MATRICES AND TRANSLATORS IN THE CRYSTALLOGRAPHIC REFERENCE FRAME
   V INV                    ROTATION MATRICES                   TRANSLATORS
   1   1  1.00  0.00  0.00  0.00  1.00  0.00  0.00  0.00  1.00  0.00  0.00  0.00
   2   2 -1.00  0.00 -0.00  0.00  1.00  0.00  0.00  0.00 -1.00  0.00  0.50  0.00

 DIRECT LATTICE VECTORS CARTESIAN COMPONENTS (ANGSTROM)
          X                    Y                    Z
   0.109417988792E+02   0.000000000000E+00  -0.633267563700E-02
   0.000000000000E+00   0.454437782506E+01  -0.000000000000E+00
  -0.547855376958E+01   0.000000000000E+00   0.954527949522E+01


 CARTESIAN COORDINATES - PRIMITIVE CELL
 *******************************************************************************
 *      ATOM          X(ANGSTROM)         Y(ANGSTROM)         Z(ANGSTROM)
 *******************************************************************************
    1    12 MG   -6.773911903874E+00  1.948619561744E+00  2.436258468209E+00
    2    12 MG    6.773911903874E+00 -3.235693507860E-01 -2.436258468209E+00
    3    12 MG   -1.436436872659E+00 -3.239026799940E-01  2.339641085110E+00
    4    12 MG    1.436436872659E+00  1.948286232536E+00 -2.339641085110E+00
    5    53 I     1.310131127350E+00  2.157042079316E+00  8.844040619360E-01
    6    53 I    -1.310131127350E+00 -1.151468332140E-01 -8.844040619360E-01
    7    53 I     1.421482899060E+00 -1.151645583240E-01  3.884932977932E+00
    8    53 I    -1.421482899060E+00  2.157024354206E+00 -3.884932977932E+00
    9    53 I    -4.167232412268E+00 -1.003144582920E-01  4.092486978674E+00
   10    53 I     4.167232412268E+00  2.171874454238E+00 -4.092486978674E+00
   11    53 I    -4.043017110016E+00  2.171810617706E+00  6.832251307300E-01
   12    53 I     4.043017110016E+00 -1.003782948240E-01 -6.832251307300E-01
   13     8 O     2.903713991149E+00 -1.487363983857E+00  1.247375183673E+00
   14     8 O    -2.903713991149E+00  7.848249286730E-01 -1.247375183673E+00
   15     8 O     9.616338843650E-01 -1.437187974695E+00 -6.762964586190E-01
   16     8 O    -9.616338843650E-01  8.350009378350E-01  6.762964586190E-01
   17     8 O     3.057107691050E-01 -1.303878598845E+00  2.000596980134E+00
   18     8 O    -3.057107691050E-01  9.683103136850E-01 -2.000596980134E+00
   19     8 O     2.426000850287E+00  9.680512280880E-01  2.768636250970E+00
   20     8 O    -2.426000850287E+00 -1.304137684442E+00 -2.768636250970E+00
   21     8 O    -1.720920322720E-01  7.848424773880E-01  3.522049500631E+00
   22     8 O     1.720920322720E-01 -1.487346435142E+00 -3.522049500631E+00
   23     8 O     7.248608061289E+00  8.349670118180E-01 -4.099633601832E+00
   24     8 O    -7.248608061289E+00 -1.437221900712E+00  4.099633601832E+00
   25     8 O    -5.677159946536E+00  9.556479797200E-01  3.876167844316E+00
   26     8 O     5.677159946536E+00 -1.316540932810E+00 -3.876167844316E+00
   27     8 O     2.019462450389E+00  8.568384312870E-01 -4.022765662470E+00
   28     8 O    -2.019462450389E+00 -1.415350481243E+00  4.022765662470E+00
   29     8 O    -3.136507819416E+00  7.218299708650E-01  2.787102807801E+00
   30     8 O     3.136507819416E+00 -1.550358941665E+00 -2.787102807801E+00
   31     8 O    -5.073680677433E+00 -1.550466114028E+00  1.988682421274E+00
   32     8 O     5.073680677433E+00  7.217227985020E-01 -1.988682421274E+00
   33     8 O    -2.533061567180E+00 -1.316644623610E+00  8.996663500800E-01
   34     8 O     2.533061567180E+00  9.555442889200E-01 -8.996663500800E-01
   35     8 O    -4.751088134103E+00 -1.415283030730E+00 -7.467479292790E-01
   36     8 O     4.751088134103E+00  8.569058818000E-01  7.467479292790E-01
 WARNING **** CRYSTA **** TESTGEOM  DIRECTIVE - GEOMETRY EDITING COMPLETE
 TTTTTTTTTTTTTTTTTTTTTTTTTTTTTT END         TELAPSE        0.06 TCPU        0.04
 EEEEEEEEEE TERMINATION  DATE 31 07 2025 TIME 12:14:58.3
