
         
 *******************************************************************************
 *                                                                             *
 *                               CRYSTAL23                                     *
 *                      public : 1.0.1 - October 2022                          *
 *                       HTTP://WWW.CRYSTAL.UNITO.IT                           *
 *                                                                             *
 *                              MAIN AUTHORS                                   *
 *                                                                             *
 *  R. DOVESI(1,11), V.R. SAUNDERS(2), C. ROETTI(1,11), R. ORLANDO(1,11),      *
 *  C.M. ZICOVICH-WILSON(1,3), F. PASCALE(4), B. CIVALLERI(1,11),              *
 *  K. DOLL(5), N.M. HARRISON(6), I.J. BUSH(7), Ph. D'ARCO(8),                 *
 *  M. LLUNELL(9), M. CAUSA'(10), Y. NOEL(8), L. MASCHIO(1,11), A. ERBA(1,11)  *
 *  M. RE'RAT(14), S. CASASSA(1,11), B.G. SEARLE(2), J.K. DESMARAIS(1)         *
 *                                                                             *
 *        CONTRIBUTIONS TO THE CODE HAVE ALSO BEEN GIVEN BY                    *
 *                                                                             *
 *  M. FERRABONE(1,11), M. DE LA PIERRE(1,11), M. FERRERO(1,11),               *
 *  J. BAIMA(1,11), E. ALBANESE(1,11), M.F. PEINTINGER(12), R. BAST(13),       *
 *  B. KIRTMAN(15), V. LACIVITA(1,11), R. DEMICHELIS(1,16)                     *
 *  G. BRANDEBURG(17), S. SALUSTRO(1,11), G. SANSONE(1,11)                     *
 *  M.T. RUGGIERO(18), L.E. DAGA(1), L. DONA'(1), A. COSSARD(1)                *
 *                                                                             *
 * (1) THEORETICAL CHEMISTRY GROUP - UNIVERSITA' DI TORINO - TORINO (ITALY)    *
 * (2) SCIENTIFIC COMPUTING DEPARTMENT - STFC DARESBURY (UK)                   *
 * (3) UNIVERSIDAD AUTONOMA DEL ESTADO DE MORELOS - CUERNAVACA (MEXICO)        *
 * (4) UNIVERSITE' DE LORRAINE - NANCY (FRANCE)                                *
 * (5) UNIVERSITAET STUTTGART- STUTTGART (GERMANY)                             *
 * (6) IMPERIAL COLLEGE - LONDON (UK)                                          *
 * (7) SCIENTIFIC COMPUTING DEPARTMENT - STFC RAL (UK)                         *
 * (8) UPMC - SORBONNE UNIVERSITES - PARIS (FRANCE)                            *
 * (9) UNIVERSIDAD DE BARCELONA - BARCELONA (SPAIN)                            *
 *(10) UNIVERSITA' DI NAPOLI "FEDERICO II" - NAPOLI (ITALY)                    *
 *(11) NIS - NANOSTRUCTURED INTERFACES AND SURFACES - TORINO (ITALY)           *
 *(12) MPI FUER CHEMISCHE ENERGIEKONVERSION - MUELHEIM AN DER RUHR (GERMANY)   *
 *(13) UNIVERSITY OF TROMSO - TROMSO (NORWAY)                                  *
 *(14) UNIVERSITE' DE PAU ET DES PAYS DE L'ADOUR - PAU (FRANCE)                *
 *(15) UNIVERSITY OF CALIFORNIA SANTA BARBARA - SANTA BARBARA (USA)            *
 *(16) CURTIN UNIVERSITY - PERTH (AUSTRALIA)                                   *
 *(17) UNIVERSITY COLLEGE LONDON - LONDON (UK)                                 *
 *(18) UNIVERSITY OF VERMONT - BURLINGTON (USA)                                *
 *                                                                             *
 *******************************************************************************
 EEEEEEEEEE STARTING  DATE 31 07 2025 TIME 12:14:58.5
 Check                                                                           
 filename=fort.34                        0           0

 GEOMETRY INPUT FROM EXTERNAL FILE (FORTRAN UNIT 34)
 3D - CRYSTAL 

 *******************************************************************************
 LATTICE PARAMETERS  (ANGSTROMS AND DEGREES) - PRIMITIVE CELL
       A          B          C        ALPHA      BETA     GAMMA        VOLUME
   11.05235    3.74082   11.05705    90.00000 120.03245  90.00000    395.775444
 INFORMATION **** CHKGRP **** SPGR WITH NO INVERSION

 NUMBER OF IRREDUCIBLE ATOMS IN THE CELL:   18

 CARTESIAN COORDINATES (ANGSTROM) - IRREDUCIBLE ATOMS AND SYMMETRY RELATED

 AT.IRR.  AT  AT.N.          X                   Y                   Z
     1     1    12   -6.889842539623E+00  1.655359489938E+00  2.403596979752E+00
     1     2    12    6.889842539623E+00 -2.150491714420E-01 -2.403596979752E+00
     3     3    12   -1.403604573527E+00 -2.152525156540E-01  2.382778761844E+00
     3     4    12    1.403604573527E+00  1.655156145726E+00 -2.382778761844E+00
     5     5    53    1.359489130883E+00  1.550729036646E+00  8.265284819170E-01
     5     6    53   -1.359489130883E+00 -3.196796247340E-01 -8.265284819170E-01
     7     7    53    1.399806935462E+00 -3.198461746250E-01  3.959663090694E+00
     7     8    53   -1.399806935462E+00  1.550562486755E+00 -3.959663090694E+00
     9     9    53   -4.169851096899E+00 -3.191663148690E-01  4.020949891274E+00
     9    10    53    4.169851096899E+00  1.551242346511E+00 -4.020949891274E+00
    11    11    53   -4.123433233148E+00  1.551292017061E+00  7.653110853930E-01
    11    12    53    4.123433233148E+00 -3.191166443190E-01 -7.653110853930E-01
    13    13     8    2.884054780413E+00 -1.116664932318E+00  1.130831419307E+00
    13    14     8   -2.884054780413E+00  7.537437290620E-01 -1.130831419307E+00
    15    15     8    9.055111093090E-01 -1.102245627368E+00 -6.432183193680E-01
    15    16     8   -9.055111093090E-01  7.681630340120E-01  6.432183193680E-01
    17    17     8    3.922501823040E-01 -1.062349011789E+00  1.967798532000E+00
    17    18     8   -3.922501823040E-01  8.080596495910E-01 -1.967798532000E+00
    19    19     8    2.367124315680E+00  8.078110376390E-01  2.818404530947E+00
    19    20     8   -2.367124315680E+00 -1.062597623741E+00 -2.818404530947E+00
    21    21     8   -1.246966467720E-01  7.536745988250E-01  3.655374607097E+00
    21    22     8    1.246966467720E-01 -1.116734062555E+00 -3.655374607097E+00
    23    23     8    7.387642231218E+00  7.680590598660E-01 -4.143181594114E+00
    23    24     8   -7.387642231218E+00 -1.102349601514E+00  4.143181594114E+00
    25    25     8   -5.658207586997E+00  7.929222435670E-01  3.779548622494E+00
    25    26     8    5.658207586997E+00 -1.077486417813E+00 -3.779548622494E+00
    27    27     8    1.942830042748E+00  7.701471436110E-01 -4.135261064784E+00
    27    28     8   -1.942830042748E+00 -1.100261517769E+00  4.135261064784E+00
    29    29     8   -3.161449201215E+00  7.338013631320E-01  2.825794340091E+00
    29    30     8    3.161449201215E+00 -1.136607298248E+00 -2.825794340091E+00
    31    31     8   -5.131686565163E+00 -1.136689624463E+00  1.960592424404E+00
    31    32     8    5.131686565163E+00  7.337190369170E-01 -1.960592424404E+00
    33    33     8   -2.634946050931E+00 -1.077463845873E+00  1.006623388874E+00
    33    34     8    2.634946050931E+00  7.929448155070E-01 -1.006623388874E+00
    35    35     8   -4.702228225084E+00 -1.100115387457E+00 -6.510339754550E-01
    35    36     8    4.702228225084E+00  7.702932739230E-01  6.510339754550E-01

 SPACE  GROUP  N.                     :    4
 NUMBER OF SYMMETRY OPERATORS         :    2
 *******************************************************************************
 LATTICE PARAMETERS (ANGSTROMS AND DEGREES) - BOHR = 0.5291772083 ANGSTROM
 PRIMITIVE CELL - CENTRING CODE 1/0 VOLUME=   395.775444 - DENSITY  6.273 g/cm^3
         A              B              C           ALPHA      BETA       GAMMA 
    11.05234996     3.74081732    11.05704812    90.000000 120.032453  90.000000
 *******************************************************************************
 ATOMS IN THE ASYMMETRIC UNIT   18 - ATOMS IN THE UNIT CELL:   36
     ATOM                 X/A                 Y/B                 Z/C    
 *******************************************************************************
      1 T  12 MG   -4.976635630694E-01  4.425127845368E-01  2.510878204543E-01
      2 F  12 MG    4.976635630694E-01 -5.748721546321E-02 -2.510878204543E-01
      3 T  12 MG   -2.364001768310E-03 -5.754157369416E-02  2.489168528910E-01
      4 F  12 MG    2.364001768310E-03  4.424584263058E-01 -2.489168528910E-01
      5 T  53 I     1.662370193585E-01  4.145428399326E-01  8.634453651318E-02
      6 F  53 I    -1.662370193585E-01 -8.545716006740E-02 -8.634453651318E-02
      7 T  53 I     3.337652091434E-01 -8.550168239411E-02  4.136485832852E-01
      8 F  53 I    -3.337652091434E-01  4.144983176059E-01 -4.136485832852E-01
      9 T  53 I    -1.669653724626E-01 -8.531994142754E-02  4.200470576904E-01
     10 F  53 I     1.669653724626E-01  4.146800585725E-01 -4.200470576904E-01
     11 T  53 I    -3.330534667891E-01  4.146933365665E-01  7.994562680905E-02
     12 F  53 I     3.330534667891E-01 -8.530666343353E-02 -7.994562680905E-02
     13 T   8 O     3.200946848903E-01 -2.985082766603E-01  1.181347109884E-01
     14 F   8 O    -3.200946848903E-01  2.014917233397E-01 -1.181347109884E-01
     15 T   8 O     4.828572022707E-02 -2.946536898933E-01 -6.719340032245E-02
     16 F   8 O    -4.828572022707E-02  2.053463101067E-01  6.719340032245E-02
     17 T   8 O     1.384170977411E-01 -2.839884763486E-01  2.055670447008E-01
     18 F   8 O    -1.384170977411E-01  2.160115236514E-01 -2.055670447008E-01
     19 T   8 O     3.615928281730E-01  2.159450643912E-01  2.944272754942E-01
     20 F   8 O    -3.615928281730E-01 -2.840549356088E-01 -2.944272754942E-01
     21 T   8 O     1.799139154022E-01  2.014732433577E-01  3.818599187738E-01
     22 F   8 O    -1.799139154022E-01 -2.985267566423E-01 -3.818599187738E-01
     23 T   8 O     4.517140000799E-01  2.053185156070E-01 -4.328137983518E-01
     24 F   8 O    -4.517140000799E-01 -2.946814843930E-01  4.328137983518E-01
     25 T   8 O    -3.142567696864E-01  2.119649732006E-01  3.948279535267E-01
     26 F   8 O     3.142567696864E-01 -2.880350267994E-01 -3.948279535267E-01
     27 T   8 O    -4.051202524724E-02  2.058767047846E-01 -4.319901635965E-01
     28 F   8 O     4.051202524724E-02 -2.941232952154E-01  4.319901635965E-01
     29 T   8 O    -1.382395849288E-01  1.961607049527E-01  2.951954101319E-01
     30 F   8 O     1.382395849288E-01 -3.038392950473E-01 -2.951954101319E-01
     31 T   8 O    -3.617592330543E-01 -3.038613025948E-01  2.048104149410E-01
     32 F   8 O     3.617592330543E-01  1.961386974052E-01 -2.048104149410E-01
     33 T   8 O    -1.857548980710E-01 -2.880289928400E-01  1.051554372721E-01
     34 F   8 O     1.857548980710E-01  2.119710071600E-01 -1.051554372721E-01
     35 T   8 O    -4.595048545211E-01 -2.940842314763E-01 -6.801376505539E-02
     36 F   8 O     4.595048545211E-01  2.059157685237E-01  6.801376505539E-02

 T = ATOM BELONGING TO THE ASYMMETRIC UNIT
 *******************************************************************************
 * GEOMETRY EDITING - INPUT COORDINATES ARE GIVEN IN ANGSTROM         
 *******************************************************************************

 GEOMETRY NOW FULLY CONSISTENT WITH THE GROUP

 GCALCO - MAX INDICES DIRECT LATTICE VECTOR    11    28    10
 NO.OF VECTORS CREATED 6999 STARS 1818 RMAX   164.98455 BOHR

 GEOMETRY FOR WAVE FUNCTION - DIMENSIONALITY OF THE SYSTEM    3
 (NON PERIODIC DIRECTION: LATTICE PARAMETER FORMALLY SET TO 500)
 *******************************************************************************
 LATTICE PARAMETERS (ANGSTROMS AND DEGREES) - BOHR = 0.5291772083 ANGSTROM
 PRIMITIVE CELL - CENTRING CODE 1/0 VOLUME=   395.775444 - DENSITY  6.273 g/cm^3
         A              B              C           ALPHA      BETA       GAMMA 
    11.05234996     3.74081732    11.05704812    90.000000 120.032453  90.000000
 *******************************************************************************
 ATOMS IN THE ASYMMETRIC UNIT   18 - ATOMS IN THE UNIT CELL:   36
     ATOM                 X/A                 Y/B                 Z/C    
 *******************************************************************************
      1 T  12 MG   -4.976635630694E-01  4.425127845368E-01  2.510878204543E-01
      2 F  12 MG    4.976635630694E-01 -5.748721546321E-02 -2.510878204543E-01
      3 T  12 MG   -2.364001768310E-03 -5.754157369416E-02  2.489168528910E-01
      4 F  12 MG    2.364001768310E-03  4.424584263058E-01 -2.489168528910E-01
      5 T  53 I     1.662370193585E-01  4.145428399326E-01  8.634453651318E-02
      6 F  53 I    -1.662370193585E-01 -8.545716006740E-02 -8.634453651318E-02
      7 T  53 I     3.337652091434E-01 -8.550168239411E-02  4.136485832852E-01
      8 F  53 I    -3.337652091434E-01  4.144983176059E-01 -4.136485832852E-01
      9 T  53 I    -1.669653724626E-01 -8.531994142754E-02  4.200470576904E-01
     10 F  53 I     1.669653724626E-01  4.146800585725E-01 -4.200470576904E-01
     11 T  53 I    -3.330534667891E-01  4.146933365665E-01  7.994562680905E-02
     12 F  53 I     3.330534667891E-01 -8.530666343353E-02 -7.994562680905E-02
     13 T   8 O     3.200946848903E-01 -2.985082766603E-01  1.181347109884E-01
     14 F   8 O    -3.200946848903E-01  2.014917233397E-01 -1.181347109884E-01
     15 T   8 O     4.828572022707E-02 -2.946536898933E-01 -6.719340032245E-02
     16 F   8 O    -4.828572022707E-02  2.053463101067E-01  6.719340032245E-02
     17 T   8 O     1.384170977411E-01 -2.839884763486E-01  2.055670447008E-01
     18 F   8 O    -1.384170977411E-01  2.160115236514E-01 -2.055670447008E-01
     19 T   8 O     3.615928281730E-01  2.159450643912E-01  2.944272754942E-01
     20 F   8 O    -3.615928281730E-01 -2.840549356088E-01 -2.944272754942E-01
     21 T   8 O     1.799139154022E-01  2.014732433577E-01  3.818599187738E-01
     22 F   8 O    -1.799139154022E-01 -2.985267566423E-01 -3.818599187738E-01
     23 T   8 O     4.517140000799E-01  2.053185156070E-01 -4.328137983518E-01
     24 F   8 O    -4.517140000799E-01 -2.946814843930E-01  4.328137983518E-01
     25 T   8 O    -3.142567696864E-01  2.119649732006E-01  3.948279535267E-01
     26 F   8 O     3.142567696864E-01 -2.880350267994E-01 -3.948279535267E-01
     27 T   8 O    -4.051202524724E-02  2.058767047846E-01 -4.319901635965E-01
     28 F   8 O     4.051202524724E-02 -2.941232952154E-01  4.319901635965E-01
     29 T   8 O    -1.382395849288E-01  1.961607049527E-01  2.951954101319E-01
     30 F   8 O     1.382395849288E-01 -3.038392950473E-01 -2.951954101319E-01
     31 T   8 O    -3.617592330543E-01 -3.038613025948E-01  2.048104149410E-01
     32 F   8 O     3.617592330543E-01  1.961386974052E-01 -2.048104149410E-01
     33 T   8 O    -1.857548980710E-01 -2.880289928400E-01  1.051554372721E-01
     34 F   8 O     1.857548980710E-01  2.119710071600E-01 -1.051554372721E-01
     35 T   8 O    -4.595048545211E-01 -2.940842314763E-01 -6.801376505539E-02
     36 F   8 O     4.595048545211E-01  2.059157685237E-01  6.801376505539E-02

 T = ATOM BELONGING TO THE ASYMMETRIC UNIT

 ****    2 SYMMOPS - TRANSLATORS IN FRACTIONAL UNITS
 **** MATRICES AND TRANSLATORS IN THE CRYSTALLOGRAPHIC REFERENCE FRAME
   V INV                    ROTATION MATRICES                   TRANSLATORS
   1   1  1.00  0.00  0.00  0.00  1.00  0.00  0.00  0.00  1.00  0.00  0.00  0.00
   2   2 -1.00  0.00  0.00  0.00  1.00  0.00  0.00  0.00 -1.00  0.00  0.50  0.00

 DIRECT LATTICE VECTORS CARTESIAN COMPONENTS (ANGSTROM)
          X                    Y                    Z
   0.110523499571E+02   0.000000000000E+00  -0.735694440000E-04
  -0.000000000000E+00   0.374081732276E+01   0.000000000000E+00
  -0.553388323324E+01   0.000000000000E+00   0.957258843767E+01


 CARTESIAN COORDINATES - PRIMITIVE CELL
 *******************************************************************************
 *      ATOM          X(ANGSTROM)         Y(ANGSTROM)         Z(ANGSTROM)
 *******************************************************************************
    1    12 MG   -6.889842539623E+00  1.655359489938E+00  2.403596979752E+00
    2    12 MG    6.889842539623E+00 -2.150491714420E-01 -2.403596979752E+00
    3    12 MG   -1.403604573527E+00 -2.152525156540E-01  2.382778761844E+00
    4    12 MG    1.403604573527E+00  1.655156145726E+00 -2.382778761844E+00
    5    53 I     1.359489130883E+00  1.550729036646E+00  8.265284819170E-01
    6    53 I    -1.359489130883E+00 -3.196796247340E-01 -8.265284819170E-01
    7    53 I     1.399806935462E+00 -3.198461746250E-01  3.959663090694E+00
    8    53 I    -1.399806935462E+00  1.550562486755E+00 -3.959663090694E+00
    9    53 I    -4.169851096899E+00 -3.191663148690E-01  4.020949891274E+00
   10    53 I     4.169851096899E+00  1.551242346511E+00 -4.020949891274E+00
   11    53 I    -4.123433233148E+00  1.551292017061E+00  7.653110853930E-01
   12    53 I     4.123433233148E+00 -3.191166443190E-01 -7.653110853930E-01
   13     8 O     2.884054780413E+00 -1.116664932318E+00  1.130831419307E+00
   14     8 O    -2.884054780413E+00  7.537437290620E-01 -1.130831419307E+00
   15     8 O     9.055111093090E-01 -1.102245627368E+00 -6.432183193680E-01
   16     8 O    -9.055111093090E-01  7.681630340120E-01  6.432183193680E-01
   17     8 O     3.922501823040E-01 -1.062349011789E+00  1.967798532000E+00
   18     8 O    -3.922501823040E-01  8.080596495910E-01 -1.967798532000E+00
   19     8 O     2.367124315680E+00  8.078110376390E-01  2.818404530947E+00
   20     8 O    -2.367124315680E+00 -1.062597623741E+00 -2.818404530947E+00
   21     8 O    -1.246966467720E-01  7.536745988250E-01  3.655374607097E+00
   22     8 O     1.246966467720E-01 -1.116734062555E+00 -3.655374607097E+00
   23     8 O     7.387642231218E+00  7.680590598660E-01 -4.143181594114E+00
   24     8 O    -7.387642231218E+00 -1.102349601514E+00  4.143181594114E+00
   25     8 O    -5.658207586997E+00  7.929222435670E-01  3.779548622494E+00
   26     8 O     5.658207586997E+00 -1.077486417813E+00 -3.779548622494E+00
   27     8 O     1.942830042748E+00  7.701471436110E-01 -4.135261064784E+00
   28     8 O    -1.942830042748E+00 -1.100261517769E+00  4.135261064784E+00
   29     8 O    -3.161449201215E+00  7.338013631320E-01  2.825794340091E+00
   30     8 O     3.161449201215E+00 -1.136607298248E+00 -2.825794340091E+00
   31     8 O    -5.131686565163E+00 -1.136689624463E+00  1.960592424404E+00
   32     8 O     5.131686565163E+00  7.337190369170E-01 -1.960592424404E+00
   33     8 O    -2.634946050931E+00 -1.077463845873E+00  1.006623388874E+00
   34     8 O     2.634946050931E+00  7.929448155070E-01 -1.006623388874E+00
   35     8 O    -4.702228225084E+00 -1.100115387457E+00 -6.510339754550E-01
   36     8 O     4.702228225084E+00  7.702932739230E-01  6.510339754550E-01
 WARNING **** CRYSTA **** TESTGEOM  DIRECTIVE - GEOMETRY EDITING COMPLETE
 TTTTTTTTTTTTTTTTTTTTTTTTTTTTTT END         TELAPSE        0.02 TCPU        0.02
 EEEEEEEEEE TERMINATION  DATE 31 07 2025 TIME 12:14:58.6
