
         
 *******************************************************************************
 *                                                                             *
 *                               CRYSTAL23                                     *
 *                      public : 1.0.1 - October 2022                          *
 *                       HTTP://WWW.CRYSTAL.UNITO.IT                           *
 *                                                                             *
 *                              MAIN AUTHORS                                   *
 *                                                                             *
 *  R. DOVESI(1,11), V.R. SAUNDERS(2), C. ROETTI(1,11), R. ORLANDO(1,11),      *
 *  C.M. ZICOVICH-WILSON(1,3), F. PASCALE(4), B. CIVALLERI(1,11),              *
 *  K. DOLL(5), N.M. HARRISON(6), I.J. BUSH(7), Ph. D'ARCO(8),                 *
 *  M. LLUNELL(9), M. CAUSA'(10), Y. NOEL(8), L. MASCHIO(1,11), A. ERBA(1,11)  *
 *  M. RE'RAT(14), S. CASASSA(1,11), B.G. SEARLE(2), J.K. DESMARAIS(1)         *
 *                                                                             *
 *        CONTRIBUTIONS TO THE CODE HAVE ALSO BEEN GIVEN BY                    *
 *                                                                             *
 *  M. FERRABONE(1,11), M. DE LA PIERRE(1,11), M. FERRERO(1,11),               *
 *  J. BAIMA(1,11), E. ALBANESE(1,11), M.F. PEINTINGER(12), R. BAST(13),       *
 *  B. KIRTMAN(15), V. LACIVITA(1,11), R. DEMICHELIS(1,16)                     *
 *  G. BRANDEBURG(17), S. SALUSTRO(1,11), G. SANSONE(1,11)                     *
 *  M.T. RUGGIERO(18), L.E. DAGA(1), L. DONA'(1), A. COSSARD(1)                *
 *                                                                             *
 * (1) THEORETICAL CHEMISTRY GROUP - UNIVERSITA' DI TORINO - TORINO (ITALY)    *
 * (2) SCIENTIFIC COMPUTING DEPARTMENT - STFC DARESBURY (UK)                   *
 * (3) UNIVERSIDAD AUTONOMA DEL ESTADO DE MORELOS - CUERNAVACA (MEXICO)        *
 * (4) UNIVERSITE' DE LORRAINE - NANCY (FRANCE)                                *
 * (5) UNIVERSITAET STUTTGART- STUTTGART (GERMANY)                             *
 * (6) IMPERIAL COLLEGE - LONDON (UK)                                          *
 * (7) SCIENTIFIC COMPUTING DEPARTMENT - STFC RAL (UK)                         *
 * (8) UPMC - SORBONNE UNIVERSITES - PARIS (FRANCE)                            *
 * (9) UNIVERSIDAD DE BARCELONA - BARCELONA (SPAIN)                            *
 *(10) UNIVERSITA' DI NAPOLI "FEDERICO II" - NAPOLI (ITALY)                    *
 *(11) NIS - NANOSTRUCTURED INTERFACES AND SURFACES - TORINO (ITALY)           *
 *(12) MPI FUER CHEMISCHE ENERGIEKONVERSION - MUELHEIM AN DER RUHR (GERMANY)   *
 *(13) UNIVERSITY OF TROMSO - TROMSO (NORWAY)                                  *
 *(14) UNIVERSITE' DE PAU ET DES PAYS DE L'ADOUR - PAU (FRANCE)                *
 *(15) UNIVERSITY OF CALIFORNIA SANTA BARBARA - SANTA BARBARA (USA)            *
 *(16) CURTIN UNIVERSITY - PERTH (AUSTRALIA)                                   *
 *(17) UNIVERSITY COLLEGE LONDON - LONDON (UK)                                 *
 *(18) UNIVERSITY OF VERMONT - BURLINGTON (USA)                                *
 *                                                                             *
 *******************************************************************************
 EEEEEEEEEE STARTING  DATE 31 07 2025 TIME 12:14:58.4
 Check                                                                           
 filename=fort.34                        0           0

 GEOMETRY INPUT FROM EXTERNAL FILE (FORTRAN UNIT 34)
 3D - CRYSTAL 

 *******************************************************************************
 LATTICE PARAMETERS  (ANGSTROMS AND DEGREES) - PRIMITIVE CELL
       A          B          C        ALPHA      BETA     GAMMA        VOLUME
   10.97645    4.40282   11.02888    90.00000 119.94431  90.00000    461.847323
 INFORMATION **** CHKGRP **** SPGR WITH NO INVERSION

 NUMBER OF IRREDUCIBLE ATOMS IN THE CELL:   18

 CARTESIAN COORDINATES (ANGSTROM) - IRREDUCIBLE ATOMS AND SYMMETRY RELATED

 AT.IRR.  AT  AT.N.          X                   Y                   Z
     1     1    12   -6.805287224707E+00  1.894546016590E+00  2.433392076775E+00
     1     2    12    6.805287224707E+00 -3.068652038900E-01 -2.433392076775E+00
     3     3    12   -1.432170694843E+00 -3.068446454520E-01  2.350617346873E+00
     3     4    12    1.432170694843E+00  1.894566575028E+00 -2.350617346873E+00
     5     5    53    1.321549951522E+00  2.055908441231E+00  8.735655735450E-01
     5     6    53   -1.321549951522E+00 -1.455027792490E-01 -8.735655735450E-01
     7     7    53    1.417421615663E+00 -1.454754712580E-01  3.902921491965E+00
     7     8    53   -1.417421615663E+00  2.055935749222E+00 -3.902921491965E+00
     9     9    53   -4.173997644933E+00 -1.352845097870E-01  4.081934562192E+00
     9    10    53    4.173997644933E+00  2.066126710693E+00 -4.081934562192E+00
    11    11    53   -4.063448990489E+00  2.066128133690E+00  7.021368275490E-01
    11    12    53    4.063448990489E+00 -1.352830867910E-01 -7.021368275490E-01
    13    13     8    2.905512648061E+00 -1.421653365085E+00  1.229146017274E+00
    13    14     8   -2.905512648061E+00  7.797578553950E-01 -1.229146017274E+00
    15    15     8    9.556071632780E-01 -1.376285049998E+00 -6.735402625280E-01
    15    16     8   -9.556071632780E-01  8.251261704820E-01  6.735402625280E-01
    17    17     8    3.207868576890E-01 -1.260426199690E+00  1.992705162650E+00
    17    18     8   -3.207868576890E-01  9.409850207900E-01 -1.992705162650E+00
    19    19     8    2.418207561231E+00  9.410427753890E-01  2.783822187007E+00
    19    20     8   -2.418207561231E+00 -1.260368445091E+00 -2.783822187007E+00
    21    21     8   -1.665444608860E-01  7.797454627380E-01  3.547271049581E+00
    21    22     8    1.665444608860E-01 -1.421665757742E+00 -3.547271049581E+00
    23    23     8    7.281799175197E+00  8.252076287140E-01 -4.110467715956E+00
    23    24     8   -7.281799175197E+00 -1.376203591766E+00  4.110467715956E+00
    25    25     8   -5.681871075973E+00  9.245938042590E-01  3.860133928630E+00
    25    26     8    5.681871075973E+00 -1.276817416221E+00 -3.860133928630E+00
    27    27     8    2.007375216781E+00  8.343999925440E-01 -4.043524192781E+00
    27    28     8   -2.007375216781E+00 -1.367011227936E+00  4.043524192781E+00
    29    29     8   -3.142324694884E+00  7.229613164220E-01  2.796251475051E+00
    29    30     8    3.142324694884E+00 -1.478449904058E+00 -2.796251475051E+00
    31    31     8   -5.095107777233E+00 -1.478429353231E+00  1.987816566049E+00
    31    32     8    5.095107777233E+00  7.229818672490E-01 -1.987816566049E+00
    33    33     8   -2.555543003138E+00 -1.276859185258E+00  9.238905118590E-01
    33    34     8    2.555543003138E+00  9.245520352220E-01 -9.238905118590E-01
    35    35     8   -4.746339390359E+00 -1.367016589840E+00 -7.328795959970E-01
    35    36     8    4.746339390359E+00  8.343946306400E-01  7.328795959970E-01

 SPACE  GROUP  N.                     :    4
 NUMBER OF SYMMETRY OPERATORS         :    2
 *******************************************************************************
 LATTICE PARAMETERS (ANGSTROMS AND DEGREES) - BOHR = 0.5291772083 ANGSTROM
 PRIMITIVE CELL - CENTRING CODE 1/0 VOLUME=   461.847323 - DENSITY  5.375 g/cm^3
         A              B              C           ALPHA      BETA       GAMMA 
    10.97644932     4.40282244    11.02887698    90.000000 119.944306  90.000000
 *******************************************************************************
 ATOMS IN THE ASYMMETRIC UNIT   18 - ATOMS IN THE UNIT CELL:   36
     ATOM                 X/A                 Y/B                 Z/C    
 *******************************************************************************
      1 T  12 MG   -4.926861273427E-01  4.303026165591E-01  2.541322147547E-01
      2 F  12 MG    4.926861273427E-01 -6.969738344095E-02 -2.541322147547E-01
      3 T  12 MG   -7.315488980066E-03 -6.969271406391E-02  2.458623835016E-01
      4 F  12 MG    7.315488980066E-03  4.303072859361E-01 -2.458623835016E-01
      5 T  53 I     1.662370949853E-01  4.669523853846E-01  9.150555326146E-02
      6 F  53 I    -1.662370949853E-01 -3.304761461543E-02 -9.150555326146E-02
      7 T  53 I     3.337662117896E-01 -3.304141223244E-02  4.085019951037E-01
      8 F  53 I    -3.337662117896E-01  4.669585877676E-01 -4.085019951037E-01
      9 T  53 I    -1.664561108638E-01 -3.072676938512E-02  4.268262193209E-01
     10 F  53 I     1.664561108638E-01  4.692732306149E-01 -4.268262193209E-01
     11 T  53 I    -3.335412289073E-01  4.692735538160E-01  7.317486384180E-02
     12 F  53 I     3.335412289073E-01 -3.072644618426E-02 -7.317486384180E-02
     13 T   8 O     3.292391723445E-01 -3.228959114633E-01  1.288286718514E-01
     14 F   8 O    -3.292391723445E-01  1.771040885367E-01 -1.288286718514E-01
     15 T   8 O     5.178937824907E-02 -3.125915406432E-01 -7.040907541403E-02
     16 F   8 O    -5.178937824907E-02  1.874084593568E-01  7.040907541403E-02
     17 T   8 O     1.336893838480E-01 -2.862768636691E-01  2.085385051249E-01
     18 F   8 O    -1.336893838480E-01  2.137231363309E-01 -2.085385051249E-01
     19 T   8 O     3.663181172444E-01  2.137362539616E-01  2.914732602079E-01
     20 F   8 O    -3.663181172444E-01 -2.862637460384E-01 -2.914732602079E-01
     21 T   8 O     1.707601572185E-01  1.771012738292E-01  3.711715516625E-01
     22 F   8 O    -1.707601572185E-01 -3.228987261708E-01 -3.711715516625E-01
     23 T   8 O     4.482076126914E-01  1.874269607234E-01 -4.295853753813E-01
     24 F   8 O    -4.482076126914E-01 -3.125730392766E-01  4.295853753813E-01
     25 T   8 O    -3.155109558068E-01  2.100002479449E-01  4.035072625326E-01
     26 F   8 O     3.155109558068E-01 -2.899997520551E-01 -4.035072625326E-01
     27 T   8 O    -2.899795029809E-02  1.895147950509E-01 -4.229649155126E-01
     28 F   8 O     2.899795029809E-02 -3.104852049491E-01  4.229649155126E-01
     29 T   8 O    -1.398210507245E-01  1.642040591272E-01  2.923685380515E-01
     30 F   8 O     1.398210507245E-01 -3.357959408728E-01 -2.923685380515E-01
     31 T   8 O    -3.601751737208E-01 -3.357912732244E-01  2.076321957444E-01
     32 F   8 O     3.601751737208E-01  1.642087267756E-01 -2.076321957444E-01
     33 T   8 O    -1.844858777231E-01 -2.900092389326E-01  9.648891026991E-02
     34 F   8 O     1.844858777231E-01  2.099907610674E-01 -9.648891026991E-02
     35 T   8 O    -4.710003174592E-01 -3.104864227825E-01 -7.703391830104E-02
     36 F   8 O     4.710003174592E-01  1.895135772175E-01  7.703391830104E-02

 T = ATOM BELONGING TO THE ASYMMETRIC UNIT
 *******************************************************************************
 * GEOMETRY EDITING - INPUT COORDINATES ARE GIVEN IN ANGSTROM         
 *******************************************************************************

 GEOMETRY NOW FULLY CONSISTENT WITH THE GROUP

 GCALCO - MAX INDICES DIRECT LATTICE VECTOR    11    25    11
 NO.OF VECTORS CREATED 6999 STARS 1824 RMAX   172.90389 BOHR

 GEOMETRY FOR WAVE FUNCTION - DIMENSIONALITY OF THE SYSTEM    3
 (NON PERIODIC DIRECTION: LATTICE PARAMETER FORMALLY SET TO 500)
 *******************************************************************************
 LATTICE PARAMETERS (ANGSTROMS AND DEGREES) - BOHR = 0.5291772083 ANGSTROM
 PRIMITIVE CELL - CENTRING CODE 1/0 VOLUME=   461.847323 - DENSITY  5.375 g/cm^3
         A              B              C           ALPHA      BETA       GAMMA 
    10.97644932     4.40282244    11.02887698    90.000000 119.944306  90.000000
 *******************************************************************************
 ATOMS IN THE ASYMMETRIC UNIT   18 - ATOMS IN THE UNIT CELL:   36
     ATOM                 X/A                 Y/B                 Z/C    
 *******************************************************************************
      1 T  12 MG   -4.926861273427E-01  4.303026165591E-01  2.541322147547E-01
      2 F  12 MG    4.926861273427E-01 -6.969738344095E-02 -2.541322147547E-01
      3 T  12 MG   -7.315488980066E-03 -6.969271406391E-02  2.458623835016E-01
      4 F  12 MG    7.315488980066E-03  4.303072859361E-01 -2.458623835016E-01
      5 T  53 I     1.662370949853E-01  4.669523853846E-01  9.150555326146E-02
      6 F  53 I    -1.662370949853E-01 -3.304761461543E-02 -9.150555326146E-02
      7 T  53 I     3.337662117896E-01 -3.304141223244E-02  4.085019951037E-01
      8 F  53 I    -3.337662117896E-01  4.669585877676E-01 -4.085019951037E-01
      9 T  53 I    -1.664561108638E-01 -3.072676938512E-02  4.268262193209E-01
     10 F  53 I     1.664561108638E-01  4.692732306149E-01 -4.268262193209E-01
     11 T  53 I    -3.335412289073E-01  4.692735538160E-01  7.317486384180E-02
     12 F  53 I     3.335412289073E-01 -3.072644618403E-02 -7.317486384180E-02
     13 T   8 O     3.292391723445E-01 -3.228959114633E-01  1.288286718514E-01
     14 F   8 O    -3.292391723445E-01  1.771040885367E-01 -1.288286718514E-01
     15 T   8 O     5.178937824907E-02 -3.125915406432E-01 -7.040907541403E-02
     16 F   8 O    -5.178937824907E-02  1.874084593568E-01  7.040907541403E-02
     17 T   8 O     1.336893838480E-01 -2.862768636691E-01  2.085385051249E-01
     18 F   8 O    -1.336893838480E-01  2.137231363309E-01 -2.085385051249E-01
     19 T   8 O     3.663181172444E-01  2.137362539616E-01  2.914732602079E-01
     20 F   8 O    -3.663181172444E-01 -2.862637460384E-01 -2.914732602079E-01
     21 T   8 O     1.707601572185E-01  1.771012738292E-01  3.711715516625E-01
     22 F   8 O    -1.707601572185E-01 -3.228987261708E-01 -3.711715516625E-01
     23 T   8 O     4.482076126914E-01  1.874269607234E-01 -4.295853753813E-01
     24 F   8 O    -4.482076126914E-01 -3.125730392766E-01  4.295853753813E-01
     25 T   8 O    -3.155109558068E-01  2.100002479449E-01  4.035072625326E-01
     26 F   8 O     3.155109558068E-01 -2.899997520551E-01 -4.035072625326E-01
     27 T   8 O    -2.899795029809E-02  1.895147950509E-01 -4.229649155126E-01
     28 F   8 O     2.899795029809E-02 -3.104852049491E-01  4.229649155126E-01
     29 T   8 O    -1.398210507245E-01  1.642040591272E-01  2.923685380515E-01
     30 F   8 O     1.398210507245E-01 -3.357959408728E-01 -2.923685380515E-01
     31 T   8 O    -3.601751737208E-01 -3.357912732244E-01  2.076321957444E-01
     32 F   8 O     3.601751737208E-01  1.642087267756E-01 -2.076321957444E-01
     33 T   8 O    -1.844858777231E-01 -2.900092389326E-01  9.648891026991E-02
     34 F   8 O     1.844858777231E-01  2.099907610674E-01 -9.648891026991E-02
     35 T   8 O    -4.710003174592E-01 -3.104864227825E-01 -7.703391830104E-02
     36 F   8 O     4.710003174592E-01  1.895135772175E-01  7.703391830104E-02

 T = ATOM BELONGING TO THE ASYMMETRIC UNIT

 ****    2 SYMMOPS - TRANSLATORS IN FRACTIONAL UNITS
 **** MATRICES AND TRANSLATORS IN THE CRYSTALLOGRAPHIC REFERENCE FRAME
   V INV                    ROTATION MATRICES                   TRANSLATORS
   1   1  1.00  0.00  0.00  0.00  1.00  0.00  0.00  0.00  1.00  0.00  0.00  0.00
   2   2 -1.00  0.00 -0.00  0.00  1.00  0.00 -0.00  0.00 -1.00  0.00  0.50  0.00

 DIRECT LATTICE VECTORS CARTESIAN COMPONENTS (ANGSTROM)
          X                    Y                    Z
   0.109764466547E+02   0.000000000000E+00  -0.764612970000E-02
   0.000000000000E+00   0.440282244096E+01  -0.000000000000E+00
  -0.549849310434E+01   0.000000000000E+00   0.956047597936E+01


 CARTESIAN COORDINATES - PRIMITIVE CELL
 *******************************************************************************
 *      ATOM          X(ANGSTROM)         Y(ANGSTROM)         Z(ANGSTROM)
 *******************************************************************************
    1    12 MG   -6.805287224707E+00  1.894546016590E+00  2.433392076775E+00
    2    12 MG    6.805287224707E+00 -3.068652038900E-01 -2.433392076775E+00
    3    12 MG   -1.432170694843E+00 -3.068446454520E-01  2.350617346873E+00
    4    12 MG    1.432170694843E+00  1.894566575028E+00 -2.350617346873E+00
    5    53 I     1.321549951522E+00  2.055908441231E+00  8.735655735450E-01
    6    53 I    -1.321549951522E+00 -1.455027792490E-01 -8.735655735450E-01
    7    53 I     1.417421615663E+00 -1.454754712580E-01  3.902921491965E+00
    8    53 I    -1.417421615663E+00  2.055935749222E+00 -3.902921491965E+00
    9    53 I    -4.173997644933E+00 -1.352845097870E-01  4.081934562192E+00
   10    53 I     4.173997644933E+00  2.066126710693E+00 -4.081934562192E+00
   11    53 I    -4.063448990489E+00  2.066128133690E+00  7.021368275490E-01
   12    53 I     4.063448990489E+00 -1.352830867900E-01 -7.021368275490E-01
   13     8 O     2.905512648061E+00 -1.421653365085E+00  1.229146017274E+00
   14     8 O    -2.905512648061E+00  7.797578553950E-01 -1.229146017274E+00
   15     8 O     9.556071632780E-01 -1.376285049998E+00 -6.735402625280E-01
   16     8 O    -9.556071632780E-01  8.251261704820E-01  6.735402625280E-01
   17     8 O     3.207868576890E-01 -1.260426199690E+00  1.992705162650E+00
   18     8 O    -3.207868576890E-01  9.409850207900E-01 -1.992705162650E+00
   19     8 O     2.418207561231E+00  9.410427753890E-01  2.783822187007E+00
   20     8 O    -2.418207561231E+00 -1.260368445091E+00 -2.783822187007E+00
   21     8 O    -1.665444608860E-01  7.797454627380E-01  3.547271049581E+00
   22     8 O     1.665444608860E-01 -1.421665757742E+00 -3.547271049581E+00
   23     8 O     7.281799175197E+00  8.252076287140E-01 -4.110467715956E+00
   24     8 O    -7.281799175197E+00 -1.376203591766E+00  4.110467715956E+00
   25     8 O    -5.681871075973E+00  9.245938042590E-01  3.860133928630E+00
   26     8 O     5.681871075973E+00 -1.276817416221E+00 -3.860133928630E+00
   27     8 O     2.007375216781E+00  8.343999925440E-01 -4.043524192781E+00
   28     8 O    -2.007375216781E+00 -1.367011227936E+00  4.043524192781E+00
   29     8 O    -3.142324694884E+00  7.229613164220E-01  2.796251475051E+00
   30     8 O     3.142324694884E+00 -1.478449904058E+00 -2.796251475051E+00
   31     8 O    -5.095107777233E+00 -1.478429353231E+00  1.987816566049E+00
   32     8 O     5.095107777233E+00  7.229818672490E-01 -1.987816566049E+00
   33     8 O    -2.555543003138E+00 -1.276859185258E+00  9.238905118590E-01
   34     8 O     2.555543003138E+00  9.245520352220E-01 -9.238905118590E-01
   35     8 O    -4.746339390359E+00 -1.367016589840E+00 -7.328795959970E-01
   36     8 O     4.746339390359E+00  8.343946306400E-01  7.328795959970E-01
 WARNING **** CRYSTA **** TESTGEOM  DIRECTIVE - GEOMETRY EDITING COMPLETE
 TTTTTTTTTTTTTTTTTTTTTTTTTTTTTT END         TELAPSE        0.02 TCPU        0.02
 EEEEEEEEEE TERMINATION  DATE 31 07 2025 TIME 12:14:58.4
