
         
 *******************************************************************************
 *                                                                             *
 *                               CRYSTAL23                                     *
 *                      public : 1.0.1 - October 2022                          *
 *                       HTTP://WWW.CRYSTAL.UNITO.IT                           *
 *                                                                             *
 *                              MAIN AUTHORS                                   *
 *                                                                             *
 *  R. DOVESI(1,11), V.R. SAUNDERS(2), C. ROETTI(1,11), R. ORLANDO(1,11),      *
 *  C.M. ZICOVICH-WILSON(1,3), F. PASCALE(4), B. CIVALLERI(1,11),              *
 *  K. DOLL(5), N.M. HARRISON(6), I.J. BUSH(7), Ph. D'ARCO(8),                 *
 *  M. LLUNELL(9), M. CAUSA'(10), Y. NOEL(8), L. MASCHIO(1,11), A. ERBA(1,11)  *
 *  M. RE'RAT(14), S. CASASSA(1,11), B.G. SEARLE(2), J.K. DESMARAIS(1)         *
 *                                                                             *
 *        CONTRIBUTIONS TO THE CODE HAVE ALSO BEEN GIVEN BY                    *
 *                                                                             *
 *  M. FERRABONE(1,11), M. DE LA PIERRE(1,11), M. FERRERO(1,11),               *
 *  J. BAIMA(1,11), E. ALBANESE(1,11), M.F. PEINTINGER(12), R. BAST(13),       *
 *  B. KIRTMAN(15), V. LACIVITA(1,11), R. DEMICHELIS(1,16)                     *
 *  G. BRANDEBURG(17), S. SALUSTRO(1,11), G. SANSONE(1,11)                     *
 *  M.T. RUGGIERO(18), L.E. DAGA(1), L. DONA'(1), A. COSSARD(1)                *
 *                                                                             *
 * (1) THEORETICAL CHEMISTRY GROUP - UNIVERSITA' DI TORINO - TORINO (ITALY)    *
 * (2) SCIENTIFIC COMPUTING DEPARTMENT - STFC DARESBURY (UK)                   *
 * (3) UNIVERSIDAD AUTONOMA DEL ESTADO DE MORELOS - CUERNAVACA (MEXICO)        *
 * (4) UNIVERSITE' DE LORRAINE - NANCY (FRANCE)                                *
 * (5) UNIVERSITAET STUTTGART- STUTTGART (GERMANY)                             *
 * (6) IMPERIAL COLLEGE - LONDON (UK)                                          *
 * (7) SCIENTIFIC COMPUTING DEPARTMENT - STFC RAL (UK)                         *
 * (8) UPMC - SORBONNE UNIVERSITES - PARIS (FRANCE)                            *
 * (9) UNIVERSIDAD DE BARCELONA - BARCELONA (SPAIN)                            *
 *(10) UNIVERSITA' DI NAPOLI "FEDERICO II" - NAPOLI (ITALY)                    *
 *(11) NIS - NANOSTRUCTURED INTERFACES AND SURFACES - TORINO (ITALY)           *
 *(12) MPI FUER CHEMISCHE ENERGIEKONVERSION - MUELHEIM AN DER RUHR (GERMANY)   *
 *(13) UNIVERSITY OF TROMSO - TROMSO (NORWAY)                                  *
 *(14) UNIVERSITE' DE PAU ET DES PAYS DE L'ADOUR - PAU (FRANCE)                *
 *(15) UNIVERSITY OF CALIFORNIA SANTA BARBARA - SANTA BARBARA (USA)            *
 *(16) CURTIN UNIVERSITY - PERTH (AUSTRALIA)                                   *
 *(17) UNIVERSITY COLLEGE LONDON - LONDON (UK)                                 *
 *(18) UNIVERSITY OF VERMONT - BURLINGTON (USA)                                *
 *                                                                             *
 *******************************************************************************
 EEEEEEEEEE STARTING  DATE 31 07 2025 TIME 12:14:58.4
 Check                                                                           
 filename=fort.34                        0           0

 GEOMETRY INPUT FROM EXTERNAL FILE (FORTRAN UNIT 34)
 3D - CRYSTAL 

 *******************************************************************************
 LATTICE PARAMETERS  (ANGSTROMS AND DEGREES) - PRIMITIVE CELL
       A          B          C        ALPHA      BETA     GAMMA        VOLUME
   11.01243    4.26920   11.05268    90.00000 119.97404  90.00000    450.133202
 INFORMATION **** CHKGRP **** SPGR WITH NO INVERSION

 NUMBER OF IRREDUCIBLE ATOMS IN THE CELL:   18

 CARTESIAN COORDINATES (ANGSTROM) - IRREDUCIBLE ATOMS AND SYMMETRY RELATED

 AT.IRR.  AT  AT.N.          X                   Y                   Z
     1     1    12   -6.837815786619E+00  1.843802490013E+00  2.426794754889E+00
     1     2    12    6.837815786619E+00 -2.907954448920E-01 -2.426794754889E+00
     3     3    12   -1.429185120414E+00 -2.903601481880E-01  2.361118821844E+00
     3     4    12    1.429185120414E+00  1.844237786717E+00 -2.361118821844E+00
     5     5    53    1.331887086262E+00  1.960875250025E+00  8.637195643390E-01
     5     6    53   -1.331887086262E+00 -1.737226848800E-01 -8.637195643390E-01
     7     7    53    1.413719057849E+00 -1.738126406710E-01  3.923149515276E+00
     7     8    53   -1.413719057849E+00  1.960785294234E+00 -3.923149515276E+00
     9     9    53   -4.182136904603E+00 -1.677801358290E-01  4.071829841331E+00
     9    10    53    4.182136904603E+00  1.966817799076E+00 -4.071829841331E+00
    11    11    53   -4.084752692948E+00  1.966817655036E+00  7.162017160260E-01
    11    12    53    4.084752692948E+00 -1.677802798690E-01 -7.162017160260E-01
    13    13     8    2.904665024909E+00 -1.359426881877E+00  1.216266801786E+00
    13    14     8   -2.904665024909E+00  7.751710530280E-01 -1.216266801786E+00
    15    15     8    9.521394805390E-01 -1.318931926943E+00 -6.704201045250E-01
    15    16     8   -9.521394805390E-01  8.156660079620E-01  6.704201045250E-01
    17    17     8    3.313570044340E-01 -1.224421949222E+00  1.987232701825E+00
    17    18     8   -3.313570044340E-01  9.101759856830E-01 -1.987232701825E+00
    19    19     8    2.414121229875E+00  9.101043284480E-01  2.799517966172E+00
    19    20     8   -2.414121229875E+00 -1.224493606457E+00 -2.799517966172E+00
    21    21     8   -1.590341686900E-01  7.751816988240E-01  3.570708812271E+00
    21    22     8    1.590341686900E-01 -1.359416236081E+00 -3.570708812271E+00
    23    23     8    7.314808115346E+00  8.155170586670E-01 -4.117553359526E+00
    23    24     8   -7.314808115346E+00 -1.319080876238E+00  4.117553359526E+00
    25    25     8   -5.687057069572E+00  8.945354756660E-01  3.840325230598E+00
    25    26     8    5.687057069572E+00 -1.240062459239E+00 -3.840325230598E+00
    27    27     8    1.994655438913E+00  8.158083097760E-01 -4.064080761481E+00
    27    28     8   -1.994655438913E+00 -1.318789625129E+00  4.064080761481E+00
    29    29     8   -3.146844721607E+00  7.264604008730E-01  2.809761768308E+00
    29    30     8    3.146844721607E+00 -1.408137534032E+00 -2.809761768308E+00
    31    31     8   -5.120231514655E+00 -1.408210641656E+00  1.978192777786E+00
    31    32     8    5.120231514655E+00  7.263872932490E-01 -1.978192777786E+00
    33    33     8   -2.579720873426E+00 -1.240284426656E+00  9.479103891410E-01
    33    34     8    2.579720873426E+00  8.943135082490E-01 -9.479103891410E-01
    35    35     8   -4.740203590169E+00 -1.318699651594E+00 -7.227432629910E-01
    35    36     8    4.740203590169E+00  8.158982833110E-01  7.227432629910E-01

 SPACE  GROUP  N.                     :    4
 NUMBER OF SYMMETRY OPERATORS         :    2
 *******************************************************************************
 LATTICE PARAMETERS (ANGSTROMS AND DEGREES) - BOHR = 0.5291772083 ANGSTROM
 PRIMITIVE CELL - CENTRING CODE 1/0 VOLUME=   450.133202 - DENSITY  5.515 g/cm^3
         A              B              C           ALPHA      BETA       GAMMA 
    11.01242870     4.26919587    11.05268229    90.000000 119.974042  90.000000
 *******************************************************************************
 ATOMS IN THE ASYMMETRIC UNIT   18 - ATOMS IN THE UNIT CELL:   36
     ATOM                 X/A                 Y/B                 Z/C    
 *******************************************************************************
      1 T  12 MG   -4.938685786942E-01  4.318851948330E-01  2.534083674416E-01
      2 F  12 MG    4.938685786942E-01 -6.811480516703E-02 -2.534083674416E-01
      3 T  12 MG   -6.145723582099E-03 -6.801284294340E-02  2.465951058054E-01
      4 F  12 MG    6.145723582099E-03  4.319871570566E-01 -2.465951058054E-01
      5 T  53 I     1.661782713706E-01  4.593078672945E-01  9.022268490183E-02
      6 F  53 I    -1.661782713706E-01 -4.069213270548E-02 -9.022268490183E-02
      7 T  53 I     3.338161626308E-01 -4.071320360355E-02  4.097659046037E-01
      8 F  53 I    -3.338161626308E-01  4.592867963965E-01 -4.097659046037E-01
      9 T  53 I    -1.665622529437E-01 -3.930017290035E-02  4.252469681474E-01
     10 F  53 I     1.665622529437E-01  4.606998270996E-01 -4.252469681474E-01
     11 T  53 I    -3.334357631912E-01  4.606997933603E-01  7.476882855190E-02
     12 F  53 I     3.334357631912E-01 -3.930020663973E-02 -7.476882855190E-02
     13 T   8 O     3.274645539704E-01 -3.184269176990E-01  1.270579769684E-01
     14 F   8 O    -3.274645539704E-01  1.815730823010E-01 -1.270579769684E-01
     15 T   8 O     5.135806368174E-02 -3.089415354001E-01 -7.001396115150E-02
     16 F   8 O    -5.135806368174E-02  1.910584645999E-01  7.001396115150E-02
     17 T   8 O     1.341519793751E-01 -2.868038821738E-01  2.075595869998E-01
     18 F   8 O    -1.341519793751E-01  2.131961178262E-01 -2.075595869998E-01
     19 T   8 O     3.658246384280E-01  2.131793331114E-01  2.924166338962E-01
     20 F   8 O    -3.658246384280E-01 -2.868206668886E-01 -2.924166338962E-01
     21 T   8 O     1.725377028196E-01  1.815755759312E-01  3.729417397507E-01
     22 F   8 O    -1.725377028196E-01 -3.184244240688E-01 -3.729417397507E-01
     23 T   8 O     4.486482613758E-01  1.910235752906E-01 -4.299957674895E-01
     24 F   8 O    -4.486482613758E-01 -3.089764247094E-01  4.299957674895E-01
     25 T   8 O    -3.153479362320E-01  2.095325449909E-01  4.010545679077E-01
     26 F   8 O     3.153479362320E-01 -2.904674550091E-01 -4.010545679077E-01
     27 T   8 O    -3.167886462034E-02  1.910917968288E-01 -4.244563277098E-01
     28 F   8 O     3.167886462034E-02 -3.089082031712E-01  4.244563277098E-01
     29 T   8 O    -1.386345992848E-01  1.701632867234E-01  2.934389769519E-01
     30 F   8 O     1.386345992848E-01 -3.298367132766E-01 -2.934389769519E-01
     31 T   8 O    -3.613843983420E-01 -3.298538377249E-01  2.065687747004E-01
     32 F   8 O     3.613843983420E-01  1.701461622751E-01 -2.065687747004E-01
     33 T   8 O    -1.846292547648E-01 -2.905194478021E-01  9.898254306618E-02
     34 F   8 O     1.846292547648E-01  2.094805521979E-01 -9.898254306618E-02
     35 T   8 O    -4.683079436978E-01 -3.088871281169E-01 -7.552755550989E-02
     36 F   8 O     4.683079436978E-01  1.911128718831E-01  7.552755550989E-02

 T = ATOM BELONGING TO THE ASYMMETRIC UNIT
 *******************************************************************************
 * GEOMETRY EDITING - INPUT COORDINATES ARE GIVEN IN ANGSTROM         
 *******************************************************************************

 GEOMETRY NOW FULLY CONSISTENT WITH THE GROUP

 GCALCO - MAX INDICES DIRECT LATTICE VECTOR    11    25    11
 NO.OF VECTORS CREATED 6999 STARS 1824 RMAX   171.27918 BOHR

 GEOMETRY FOR WAVE FUNCTION - DIMENSIONALITY OF THE SYSTEM    3
 (NON PERIODIC DIRECTION: LATTICE PARAMETER FORMALLY SET TO 500)
 *******************************************************************************
 LATTICE PARAMETERS (ANGSTROMS AND DEGREES) - BOHR = 0.5291772083 ANGSTROM
 PRIMITIVE CELL - CENTRING CODE 1/0 VOLUME=   450.133202 - DENSITY  5.515 g/cm^3
         A              B              C           ALPHA      BETA       GAMMA 
    11.01242870     4.26919587    11.05268229    90.000000 119.974042  90.000000
 *******************************************************************************
 ATOMS IN THE ASYMMETRIC UNIT   18 - ATOMS IN THE UNIT CELL:   36
     ATOM                 X/A                 Y/B                 Z/C    
 *******************************************************************************
      1 T  12 MG   -4.938685786942E-01  4.318851948330E-01  2.534083674416E-01
      2 F  12 MG    4.938685786942E-01 -6.811480516703E-02 -2.534083674416E-01
      3 T  12 MG   -6.145723582099E-03 -6.801284294340E-02  2.465951058054E-01
      4 F  12 MG    6.145723582099E-03  4.319871570566E-01 -2.465951058054E-01
      5 T  53 I     1.661782713706E-01  4.593078672945E-01  9.022268490183E-02
      6 F  53 I    -1.661782713706E-01 -4.069213270548E-02 -9.022268490183E-02
      7 T  53 I     3.338161626308E-01 -4.071320360355E-02  4.097659046037E-01
      8 F  53 I    -3.338161626308E-01  4.592867963965E-01 -4.097659046037E-01
      9 T  53 I    -1.665622529437E-01 -3.930017290035E-02  4.252469681474E-01
     10 F  53 I     1.665622529437E-01  4.606998270996E-01 -4.252469681474E-01
     11 T  53 I    -3.334357631912E-01  4.606997933603E-01  7.476882855190E-02
     12 F  53 I     3.334357631912E-01 -3.930020663973E-02 -7.476882855190E-02
     13 T   8 O     3.274645539704E-01 -3.184269176990E-01  1.270579769684E-01
     14 F   8 O    -3.274645539704E-01  1.815730823010E-01 -1.270579769684E-01
     15 T   8 O     5.135806368174E-02 -3.089415354001E-01 -7.001396115150E-02
     16 F   8 O    -5.135806368174E-02  1.910584645999E-01  7.001396115150E-02
     17 T   8 O     1.341519793751E-01 -2.868038821738E-01  2.075595869998E-01
     18 F   8 O    -1.341519793751E-01  2.131961178262E-01 -2.075595869998E-01
     19 T   8 O     3.658246384280E-01  2.131793331114E-01  2.924166338962E-01
     20 F   8 O    -3.658246384280E-01 -2.868206668886E-01 -2.924166338962E-01
     21 T   8 O     1.725377028196E-01  1.815755759312E-01  3.729417397507E-01
     22 F   8 O    -1.725377028196E-01 -3.184244240688E-01 -3.729417397507E-01
     23 T   8 O     4.486482613758E-01  1.910235752906E-01 -4.299957674895E-01
     24 F   8 O    -4.486482613758E-01 -3.089764247094E-01  4.299957674895E-01
     25 T   8 O    -3.153479362320E-01  2.095325449909E-01  4.010545679077E-01
     26 F   8 O     3.153479362320E-01 -2.904674550091E-01 -4.010545679077E-01
     27 T   8 O    -3.167886462034E-02  1.910917968288E-01 -4.244563277098E-01
     28 F   8 O     3.167886462034E-02 -3.089082031712E-01  4.244563277098E-01
     29 T   8 O    -1.386345992848E-01  1.701632867234E-01  2.934389769519E-01
     30 F   8 O     1.386345992848E-01 -3.298367132766E-01 -2.934389769519E-01
     31 T   8 O    -3.613843983420E-01 -3.298538377249E-01  2.065687747004E-01
     32 F   8 O     3.613843983420E-01  1.701461622751E-01 -2.065687747004E-01
     33 T   8 O    -1.846292547648E-01 -2.905194478021E-01  9.898254306618E-02
     34 F   8 O     1.846292547648E-01  2.094805521979E-01 -9.898254306618E-02
     35 T   8 O    -4.683079436978E-01 -3.088871281169E-01 -7.552755550989E-02
     36 F   8 O     4.683079436978E-01  1.911128718831E-01  7.552755550989E-02

 T = ATOM BELONGING TO THE ASYMMETRIC UNIT

 ****    2 SYMMOPS - TRANSLATORS IN FRACTIONAL UNITS
 **** MATRICES AND TRANSLATORS IN THE CRYSTALLOGRAPHIC REFERENCE FRAME
   V INV                    ROTATION MATRICES                   TRANSLATORS
   1   1  1.00  0.00  0.00  0.00  1.00  0.00  0.00  0.00  1.00  0.00  0.00  0.00
   2   2 -1.00  0.00 -0.00  0.00  1.00  0.00  0.00  0.00 -1.00  0.00  0.50  0.00

 DIRECT LATTICE VECTORS CARTESIAN COMPONENTS (ANGSTROM)
          X                    Y                    Z
   0.110124286671E+02   0.000000000000E+00  -0.901979517000E-03
   0.000000000000E+00   0.426919586981E+01  -0.000000000000E+00
  -0.552121978825E+01   0.000000000000E+00   0.957485863645E+01


 CARTESIAN COORDINATES - PRIMITIVE CELL
 *******************************************************************************
 *      ATOM          X(ANGSTROM)         Y(ANGSTROM)         Z(ANGSTROM)
 *******************************************************************************
    1    12 MG   -6.837815786619E+00  1.843802490013E+00  2.426794754889E+00
    2    12 MG    6.837815786619E+00 -2.907954448920E-01 -2.426794754889E+00
    3    12 MG   -1.429185120414E+00 -2.903601481880E-01  2.361118821844E+00
    4    12 MG    1.429185120414E+00  1.844237786717E+00 -2.361118821844E+00
    5    53 I     1.331887086262E+00  1.960875250025E+00  8.637195643390E-01
    6    53 I    -1.331887086262E+00 -1.737226848800E-01 -8.637195643390E-01
    7    53 I     1.413719057849E+00 -1.738126406710E-01  3.923149515276E+00
    8    53 I    -1.413719057849E+00  1.960785294234E+00 -3.923149515276E+00
    9    53 I    -4.182136904603E+00 -1.677801358290E-01  4.071829841331E+00
   10    53 I     4.182136904603E+00  1.966817799076E+00 -4.071829841331E+00
   11    53 I    -4.084752692948E+00  1.966817655036E+00  7.162017160260E-01
   12    53 I     4.084752692948E+00 -1.677802798690E-01 -7.162017160260E-01
   13     8 O     2.904665024909E+00 -1.359426881877E+00  1.216266801786E+00
   14     8 O    -2.904665024909E+00  7.751710530280E-01 -1.216266801786E+00
   15     8 O     9.521394805390E-01 -1.318931926943E+00 -6.704201045250E-01
   16     8 O    -9.521394805390E-01  8.156660079620E-01  6.704201045250E-01
   17     8 O     3.313570044340E-01 -1.224421949222E+00  1.987232701825E+00
   18     8 O    -3.313570044340E-01  9.101759856830E-01 -1.987232701825E+00
   19     8 O     2.414121229875E+00  9.101043284480E-01  2.799517966172E+00
   20     8 O    -2.414121229875E+00 -1.224493606457E+00 -2.799517966172E+00
   21     8 O    -1.590341686900E-01  7.751816988240E-01  3.570708812271E+00
   22     8 O     1.590341686900E-01 -1.359416236081E+00 -3.570708812271E+00
   23     8 O     7.314808115346E+00  8.155170586670E-01 -4.117553359526E+00
   24     8 O    -7.314808115346E+00 -1.319080876238E+00  4.117553359526E+00
   25     8 O    -5.687057069572E+00  8.945354756660E-01  3.840325230598E+00
   26     8 O     5.687057069572E+00 -1.240062459239E+00 -3.840325230598E+00
   27     8 O     1.994655438913E+00  8.158083097760E-01 -4.064080761481E+00
   28     8 O    -1.994655438913E+00 -1.318789625129E+00  4.064080761481E+00
   29     8 O    -3.146844721607E+00  7.264604008730E-01  2.809761768308E+00
   30     8 O     3.146844721607E+00 -1.408137534032E+00 -2.809761768308E+00
   31     8 O    -5.120231514655E+00 -1.408210641656E+00  1.978192777786E+00
   32     8 O     5.120231514655E+00  7.263872932490E-01 -1.978192777786E+00
   33     8 O    -2.579720873426E+00 -1.240284426656E+00  9.479103891410E-01
   34     8 O     2.579720873426E+00  8.943135082490E-01 -9.479103891410E-01
   35     8 O    -4.740203590169E+00 -1.318699651594E+00 -7.227432629910E-01
   36     8 O     4.740203590169E+00  8.158982833110E-01  7.227432629910E-01
 WARNING **** CRYSTA **** TESTGEOM  DIRECTIVE - GEOMETRY EDITING COMPLETE
 TTTTTTTTTTTTTTTTTTTTTTTTTTTTTT END         TELAPSE        0.02 TCPU        0.02
 EEEEEEEEEE TERMINATION  DATE 31 07 2025 TIME 12:14:58.4
