
         
 *******************************************************************************
 *                                                                             *
 *                               CRYSTAL23                                     *
 *                      public : 1.0.1 - October 2022                          *
 *                       HTTP://WWW.CRYSTAL.UNITO.IT                           *
 *                                                                             *
 *                              MAIN AUTHORS                                   *
 *                                                                             *
 *  R. DOVESI(1,11), V.R. SAUNDERS(2), C. ROETTI(1,11), R. ORLANDO(1,11),      *
 *  C.M. ZICOVICH-WILSON(1,3), F. PASCALE(4), B. CIVALLERI(1,11),              *
 *  K. DOLL(5), N.M. HARRISON(6), I.J. BUSH(7), Ph. D'ARCO(8),                 *
 *  M. LLUNELL(9), M. CAUSA'(10), Y. NOEL(8), L. MASCHIO(1,11), A. ERBA(1,11)  *
 *  M. RE'RAT(14), S. CASASSA(1,11), B.G. SEARLE(2), J.K. DESMARAIS(1)         *
 *                                                                             *
 *        CONTRIBUTIONS TO THE CODE HAVE ALSO BEEN GIVEN BY                    *
 *                                                                             *
 *  M. FERRABONE(1,11), M. DE LA PIERRE(1,11), M. FERRERO(1,11),               *
 *  J. BAIMA(1,11), E. ALBANESE(1,11), M.F. PEINTINGER(12), R. BAST(13),       *
 *  B. KIRTMAN(15), V. LACIVITA(1,11), R. DEMICHELIS(1,16)                     *
 *  G. BRANDEBURG(17), S. SALUSTRO(1,11), G. SANSONE(1,11)                     *
 *  M.T. RUGGIERO(18), L.E. DAGA(1), L. DONA'(1), A. COSSARD(1)                *
 *                                                                             *
 * (1) THEORETICAL CHEMISTRY GROUP - UNIVERSITA' DI TORINO - TORINO (ITALY)    *
 * (2) SCIENTIFIC COMPUTING DEPARTMENT - STFC DARESBURY (UK)                   *
 * (3) UNIVERSIDAD AUTONOMA DEL ESTADO DE MORELOS - CUERNAVACA (MEXICO)        *
 * (4) UNIVERSITE' DE LORRAINE - NANCY (FRANCE)                                *
 * (5) UNIVERSITAET STUTTGART- STUTTGART (GERMANY)                             *
 * (6) IMPERIAL COLLEGE - LONDON (UK)                                          *
 * (7) SCIENTIFIC COMPUTING DEPARTMENT - STFC RAL (UK)                         *
 * (8) UPMC - SORBONNE UNIVERSITES - PARIS (FRANCE)                            *
 * (9) UNIVERSIDAD DE BARCELONA - BARCELONA (SPAIN)                            *
 *(10) UNIVERSITA' DI NAPOLI "FEDERICO II" - NAPOLI (ITALY)                    *
 *(11) NIS - NANOSTRUCTURED INTERFACES AND SURFACES - TORINO (ITALY)           *
 *(12) MPI FUER CHEMISCHE ENERGIEKONVERSION - MUELHEIM AN DER RUHR (GERMANY)   *
 *(13) UNIVERSITY OF TROMSO - TROMSO (NORWAY)                                  *
 *(14) UNIVERSITE' DE PAU ET DES PAYS DE L'ADOUR - PAU (FRANCE)                *
 *(15) UNIVERSITY OF CALIFORNIA SANTA BARBARA - SANTA BARBARA (USA)            *
 *(16) CURTIN UNIVERSITY - PERTH (AUSTRALIA)                                   *
 *(17) UNIVERSITY COLLEGE LONDON - LONDON (UK)                                 *
 *(18) UNIVERSITY OF VERMONT - BURLINGTON (USA)                                *
 *                                                                             *
 *******************************************************************************
 EEEEEEEEEE STARTING  DATE 31 07 2025 TIME 12:14:58.4
 Check                                                                           
 filename=fort.34                        0           0

 GEOMETRY INPUT FROM EXTERNAL FILE (FORTRAN UNIT 34)
 3D - CRYSTAL 

 *******************************************************************************
 LATTICE PARAMETERS  (ANGSTROMS AND DEGREES) - PRIMITIVE CELL
       A          B          C        ALPHA      BETA     GAMMA        VOLUME
   11.04465    4.13742   11.07432    90.00000 119.98741  90.00000    438.312810
 INFORMATION **** CHKGRP **** SPGR WITH NO INVERSION

 NUMBER OF IRREDUCIBLE ATOMS IN THE CELL:   18

 CARTESIAN COORDINATES (ANGSTROM) - IRREDUCIBLE ATOMS AND SYMMETRY RELATED

 AT.IRR.  AT  AT.N.          X                   Y                   Z
     1     1    12   -6.866644939916E+00  1.793882450609E+00  2.421753542150E+00
     1     2    12    6.866644939916E+00 -2.748267848210E-01 -2.421753542150E+00
     3     3    12   -1.425183960445E+00 -2.743605388410E-01  2.370502252128E+00
     3     4    12    1.425183960445E+00  1.794348696589E+00 -2.370502252128E+00
     5     5    53    1.342267691976E+00  1.863357306750E+00  8.557270656180E-01
     5     6    53   -1.342267691976E+00 -2.053519286790E-01 -8.557270656180E-01
     7     7    53    1.410417517325E+00 -2.053838909350E-01  3.941457099183E+00
     7     8    53   -1.410417517325E+00  1.863325344495E+00 -3.941457099183E+00
     9     9    53   -4.187979506912E+00 -2.017336337470E-01  4.062952338025E+00
     9    10    53    4.187979506912E+00  1.866975601682E+00 -4.062952338025E+00
    11    11    53   -4.103964121881E+00  1.867037842570E+00  7.293956046040E-01
    11    12    53    4.103964121881E+00 -2.016713928600E-01 -7.293956046040E-01
    13    13     8    2.904401068647E+00 -1.298935678161E+00  1.200522863444E+00
    13    14     8   -2.904401068647E+00  7.697735572690E-01 -1.200522863444E+00
    15    15     8    9.450075938460E-01 -1.264890484698E+00 -6.650194109830E-01
    15    16     8   -9.450075938460E-01  8.038187507320E-01  6.650194109830E-01
    17    17     8    3.465076381100E-01 -1.184974244908E+00  1.983613707101E+00
    17    18     8   -3.465076381100E-01  8.837349905220E-01 -1.983613707101E+00
    19    19     8    2.405939521308E+00  8.839243332670E-01  2.813533521253E+00
    19    20     8   -2.405939521308E+00 -1.184784902163E+00 -2.813533521253E+00
    21    21     8   -1.517623393250E-01  7.697502992940E-01  3.596755614647E+00
    21    22     8    1.517623393250E-01 -1.298958936136E+00 -3.596755614647E+00
    23    23     8    7.346959427485E+00  8.036812050840E-01 -4.127174806696E+00
    23    24     8   -7.346959427485E+00 -1.265028030346E+00  4.127174806696E+00
    25    25     8   -5.690125657926E+00  8.672171406430E-01  3.824598636277E+00
    25    26     8    5.690125657926E+00 -1.201492094787E+00 -3.824598636277E+00
    27    27     8    1.983281038376E+00  8.017410084720E-01 -4.088200271151E+00
    27    28     8   -1.983281038376E+00 -1.266968226958E+00  4.088200271151E+00
    29    29     8   -3.154274285046E+00  7.278777957990E-01  2.819323685609E+00
    29    30     8    3.154274285046E+00 -1.340831439631E+00 -2.819323685609E+00
    31    31     8   -5.137799837907E+00 -1.340850629638E+00  1.973000655360E+00
    31    32     8    5.137799837907E+00  7.278586057920E-01 -1.973000655360E+00
    33    33     8   -2.601901274556E+00 -1.201424039142E+00  9.679145145200E-01
    33    34     8    2.601901274556E+00  8.672851962880E-01 -9.679145145200E-01
    35    35     8   -4.735969448061E+00 -1.266870892984E+00 -7.088513914250E-01
    35    36     8    4.735969448061E+00  8.018383424460E-01  7.088513914250E-01

 SPACE  GROUP  N.                     :    4
 NUMBER OF SYMMETRY OPERATORS         :    2
 *******************************************************************************
 LATTICE PARAMETERS (ANGSTROMS AND DEGREES) - BOHR = 0.5291772083 ANGSTROM
 PRIMITIVE CELL - CENTRING CODE 1/0 VOLUME=   438.312810 - DENSITY  5.664 g/cm^3
         A              B              C           ALPHA      BETA       GAMMA 
    11.04465373     4.13741847    11.07431529    90.000000 119.987407  90.000000
 *******************************************************************************
 ATOMS IN THE ASYMMETRIC UNIT   18 - ATOMS IN THE UNIT CELL:   36
     ATOM                 X/A                 Y/B                 Z/C    
 *******************************************************************************
      1 T  12 MG   -4.949322087213E-01  4.335752990043E-01  2.527940509694E-01
      2 F  12 MG    4.949322087213E-01 -6.642470099571E-02 -2.527940509694E-01
      3 T  12 MG   -5.058421749680E-03 -6.631201092501E-02  2.472021160672E-01
      4 F  12 MG    5.058421749680E-03  4.336879890750E-01 -2.472021160672E-01
      5 T  53 I     1.662439279183E-01  4.503671359022E-01  8.915256459419E-02
      6 F  53 I    -1.662439279183E-01 -4.963286409758E-02 -8.915256459419E-02
      7 T  53 I     3.337573947269E-01 -4.964058926636E-02  4.108525718625E-01
      8 F  53 I    -3.337573947269E-01  4.503594107336E-01 -4.108525718625E-01
      9 T  53 I    -1.666491579139E-01 -4.875833449476E-02  4.237749707929E-01
     10 F  53 I     1.666491579139E-01  4.512416655050E-01 -4.237749707929E-01
     11 T  53 I    -3.333470394245E-01  4.512567089163E-01  7.623080842423E-02
     12 F  53 I     3.333470394245E-01 -4.874329108365E-02 -7.623080842423E-02
     13 T   8 O     3.256745552330E-01 -3.139483441932E-01  1.250278840134E-01
     14 F   8 O    -3.256745552330E-01  1.860516558068E-01 -1.250278840134E-01
     15 T   8 O     5.076868969040E-02 -3.057197364991E-01 -6.937486722668E-02
     16 F   8 O    -5.076868969040E-02  1.942802635009E-01  6.937486722668E-02
     17 T   8 O     1.350832948547E-01 -2.864042526164E-01  2.067860254595E-01
     18 F   8 O    -1.350832948547E-01  2.135957473836E-01 -2.067860254595E-01
     19 T   8 O     3.648945485329E-01  2.136415108823E-01  2.932152710650E-01
     20 F   8 O    -3.648945485329E-01 -2.863584891177E-01 -2.932152710650E-01
     21 T   8 O     1.743274915000E-01  1.860460344332E-01  3.749870872102E-01
     22 F   8 O    -1.743274915000E-01 -3.139539655668E-01 -3.749870872102E-01
     23 T   8 O     4.492376629783E-01  1.942470191846E-01 -4.306148864482E-01
     24 F   8 O    -4.492376629783E-01 -3.057529808154E-01  4.306148864482E-01
     25 T   8 O    -3.150842490261E-01  2.096034391374E-01  3.989940417679E-01
     26 F   8 O     3.150842490261E-01 -2.903965608626E-01 -3.989940417679E-01
     27 T   8 O    -3.423726957450E-02  1.937780802495E-01 -4.263064213251E-01
     28 F   8 O     3.423726957450E-02 -3.062219197505E-01  4.263064213251E-01
     29 T   8 O    -1.381056230423E-01  1.759255924740E-01  2.940730794589E-01
     30 F   8 O     1.381056230423E-01 -3.240744075260E-01 -2.940730794589E-01
     31 T   8 O    -3.619036205166E-01 -3.240790456855E-01  2.059302451294E-01
     32 F   8 O     3.619036205166E-01  1.759209543145E-01 -2.059302451294E-01
     33 T   8 O    -1.849108505510E-01 -2.903801120442E-01  1.010289650526E-01
     34 F   8 O     1.849108505510E-01  2.096198879558E-01 -1.010289650526E-01
     35 T   8 O    -4.657574145752E-01 -3.061983944594E-01 -7.368490095133E-02
     36 F   8 O     4.657574145752E-01  1.938016055406E-01  7.368490095133E-02

 T = ATOM BELONGING TO THE ASYMMETRIC UNIT
 *******************************************************************************
 * GEOMETRY EDITING - INPUT COORDINATES ARE GIVEN IN ANGSTROM         
 *******************************************************************************

 GEOMETRY NOW FULLY CONSISTENT WITH THE GROUP

 GCALCO - MAX INDICES DIRECT LATTICE VECTOR    11    25    11
 NO.OF VECTORS CREATED 6999 STARS 1821 RMAX   170.19346 BOHR

 GEOMETRY FOR WAVE FUNCTION - DIMENSIONALITY OF THE SYSTEM    3
 (NON PERIODIC DIRECTION: LATTICE PARAMETER FORMALLY SET TO 500)
 *******************************************************************************
 LATTICE PARAMETERS (ANGSTROMS AND DEGREES) - BOHR = 0.5291772083 ANGSTROM
 PRIMITIVE CELL - CENTRING CODE 1/0 VOLUME=   438.312810 - DENSITY  5.664 g/cm^3
         A              B              C           ALPHA      BETA       GAMMA 
    11.04465373     4.13741847    11.07431529    90.000000 119.987407  90.000000
 *******************************************************************************
 ATOMS IN THE ASYMMETRIC UNIT   18 - ATOMS IN THE UNIT CELL:   36
     ATOM                 X/A                 Y/B                 Z/C    
 *******************************************************************************
      1 T  12 MG   -4.949322087213E-01  4.335752990043E-01  2.527940509694E-01
      2 F  12 MG    4.949322087213E-01 -6.642470099571E-02 -2.527940509694E-01
      3 T  12 MG   -5.058421749680E-03 -6.631201092501E-02  2.472021160672E-01
      4 F  12 MG    5.058421749680E-03  4.336879890750E-01 -2.472021160672E-01
      5 T  53 I     1.662439279183E-01  4.503671359022E-01  8.915256459419E-02
      6 F  53 I    -1.662439279183E-01 -4.963286409782E-02 -8.915256459419E-02
      7 T  53 I     3.337573947269E-01 -4.964058926636E-02  4.108525718625E-01
      8 F  53 I    -3.337573947269E-01  4.503594107336E-01 -4.108525718625E-01
      9 T  53 I    -1.666491579139E-01 -4.875833449476E-02  4.237749707929E-01
     10 F  53 I     1.666491579139E-01  4.512416655052E-01 -4.237749707929E-01
     11 T  53 I    -3.333470394245E-01  4.512567089163E-01  7.623080842423E-02
     12 F  53 I     3.333470394245E-01 -4.874329108365E-02 -7.623080842423E-02
     13 T   8 O     3.256745552330E-01 -3.139483441932E-01  1.250278840134E-01
     14 F   8 O    -3.256745552330E-01  1.860516558068E-01 -1.250278840134E-01
     15 T   8 O     5.076868969040E-02 -3.057197364991E-01 -6.937486722668E-02
     16 F   8 O    -5.076868969040E-02  1.942802635009E-01  6.937486722668E-02
     17 T   8 O     1.350832948547E-01 -2.864042526164E-01  2.067860254595E-01
     18 F   8 O    -1.350832948547E-01  2.135957473836E-01 -2.067860254595E-01
     19 T   8 O     3.648945485329E-01  2.136415108823E-01  2.932152710650E-01
     20 F   8 O    -3.648945485329E-01 -2.863584891177E-01 -2.932152710650E-01
     21 T   8 O     1.743274915000E-01  1.860460344332E-01  3.749870872102E-01
     22 F   8 O    -1.743274915000E-01 -3.139539655668E-01 -3.749870872102E-01
     23 T   8 O     4.492376629783E-01  1.942470191846E-01 -4.306148864482E-01
     24 F   8 O    -4.492376629783E-01 -3.057529808154E-01  4.306148864482E-01
     25 T   8 O    -3.150842490261E-01  2.096034391374E-01  3.989940417679E-01
     26 F   8 O     3.150842490261E-01 -2.903965608626E-01 -3.989940417679E-01
     27 T   8 O    -3.423726957450E-02  1.937780802495E-01 -4.263064213251E-01
     28 F   8 O     3.423726957450E-02 -3.062219197505E-01  4.263064213251E-01
     29 T   8 O    -1.381056230423E-01  1.759255924740E-01  2.940730794589E-01
     30 F   8 O     1.381056230423E-01 -3.240744075260E-01 -2.940730794589E-01
     31 T   8 O    -3.619036205166E-01 -3.240790456855E-01  2.059302451294E-01
     32 F   8 O     3.619036205166E-01  1.759209543145E-01 -2.059302451294E-01
     33 T   8 O    -1.849108505510E-01 -2.903801120442E-01  1.010289650526E-01
     34 F   8 O     1.849108505510E-01  2.096198879558E-01 -1.010289650526E-01
     35 T   8 O    -4.657574145752E-01 -3.061983944594E-01 -7.368490095133E-02
     36 F   8 O     4.657574145752E-01  1.938016055406E-01  7.368490095133E-02

 T = ATOM BELONGING TO THE ASYMMETRIC UNIT

 ****    2 SYMMOPS - TRANSLATORS IN FRACTIONAL UNITS
 **** MATRICES AND TRANSLATORS IN THE CRYSTALLOGRAPHIC REFERENCE FRAME
   V INV                    ROTATION MATRICES                   TRANSLATORS
   1   1  1.00  0.00  0.00  0.00  1.00  0.00  0.00  0.00  1.00  0.00  0.00  0.00
   2   2 -1.00  0.00 -0.00  0.00  1.00  0.00 -0.00  0.00 -1.00  0.00  0.50  0.00

 DIRECT LATTICE VECTORS CARTESIAN COMPONENTS (ANGSTROM)
          X                    Y                    Z
   0.110446526686E+02   0.000000000000E+00   0.484239788600E-02
   0.000000000000E+00   0.413741847086E+01  -0.000000000000E+00
  -0.553925456203E+01   0.000000000000E+00   0.958942740755E+01


 CARTESIAN COORDINATES - PRIMITIVE CELL
 *******************************************************************************
 *      ATOM          X(ANGSTROM)         Y(ANGSTROM)         Z(ANGSTROM)
 *******************************************************************************
    1    12 MG   -6.866644939916E+00  1.793882450609E+00  2.421753542150E+00
    2    12 MG    6.866644939916E+00 -2.748267848210E-01 -2.421753542150E+00
    3    12 MG   -1.425183960445E+00 -2.743605388410E-01  2.370502252128E+00
    4    12 MG    1.425183960445E+00  1.794348696589E+00 -2.370502252128E+00
    5    53 I     1.342267691976E+00  1.863357306750E+00  8.557270656180E-01
    6    53 I    -1.342267691976E+00 -2.053519286800E-01 -8.557270656180E-01
    7    53 I     1.410417517325E+00 -2.053838909350E-01  3.941457099183E+00
    8    53 I    -1.410417517325E+00  1.863325344495E+00 -3.941457099183E+00
    9    53 I    -4.187979506912E+00 -2.017336337470E-01  4.062952338025E+00
   10    53 I     4.187979506912E+00  1.866975601683E+00 -4.062952338025E+00
   11    53 I    -4.103964121881E+00  1.867037842570E+00  7.293956046040E-01
   12    53 I     4.103964121881E+00 -2.016713928600E-01 -7.293956046040E-01
   13     8 O     2.904401068647E+00 -1.298935678161E+00  1.200522863444E+00
   14     8 O    -2.904401068647E+00  7.697735572690E-01 -1.200522863444E+00
   15     8 O     9.450075938460E-01 -1.264890484698E+00 -6.650194109830E-01
   16     8 O    -9.450075938460E-01  8.038187507320E-01  6.650194109830E-01
   17     8 O     3.465076381100E-01 -1.184974244908E+00  1.983613707101E+00
   18     8 O    -3.465076381100E-01  8.837349905220E-01 -1.983613707101E+00
   19     8 O     2.405939521308E+00  8.839243332670E-01  2.813533521253E+00
   20     8 O    -2.405939521308E+00 -1.184784902163E+00 -2.813533521253E+00
   21     8 O    -1.517623393250E-01  7.697502992940E-01  3.596755614647E+00
   22     8 O     1.517623393250E-01 -1.298958936136E+00 -3.596755614647E+00
   23     8 O     7.346959427485E+00  8.036812050840E-01 -4.127174806696E+00
   24     8 O    -7.346959427485E+00 -1.265028030346E+00  4.127174806696E+00
   25     8 O    -5.690125657926E+00  8.672171406430E-01  3.824598636277E+00
   26     8 O     5.690125657926E+00 -1.201492094787E+00 -3.824598636277E+00
   27     8 O     1.983281038376E+00  8.017410084720E-01 -4.088200271151E+00
   28     8 O    -1.983281038376E+00 -1.266968226958E+00  4.088200271151E+00
   29     8 O    -3.154274285046E+00  7.278777957990E-01  2.819323685609E+00
   30     8 O     3.154274285046E+00 -1.340831439631E+00 -2.819323685609E+00
   31     8 O    -5.137799837907E+00 -1.340850629638E+00  1.973000655360E+00
   32     8 O     5.137799837907E+00  7.278586057920E-01 -1.973000655360E+00
   33     8 O    -2.601901274556E+00 -1.201424039142E+00  9.679145145200E-01
   34     8 O     2.601901274556E+00  8.672851962880E-01 -9.679145145200E-01
   35     8 O    -4.735969448061E+00 -1.266870892984E+00 -7.088513914250E-01
   36     8 O     4.735969448061E+00  8.018383424460E-01  7.088513914250E-01
 WARNING **** CRYSTA **** TESTGEOM  DIRECTIVE - GEOMETRY EDITING COMPLETE
 TTTTTTTTTTTTTTTTTTTTTTTTTTTTTT END         TELAPSE        0.02 TCPU        0.02
 EEEEEEEEEE TERMINATION  DATE 31 07 2025 TIME 12:14:58.4
