
         
 *******************************************************************************
 *                                                                             *
 *                               CRYSTAL23                                     *
 *                      public : 1.0.1 - October 2022                          *
 *                       HTTP://WWW.CRYSTAL.UNITO.IT                           *
 *                                                                             *
 *                              MAIN AUTHORS                                   *
 *                                                                             *
 *  R. DOVESI(1,11), V.R. SAUNDERS(2), C. ROETTI(1,11), R. ORLANDO(1,11),      *
 *  C.M. ZICOVICH-WILSON(1,3), F. PASCALE(4), B. CIVALLERI(1,11),              *
 *  K. DOLL(5), N.M. HARRISON(6), I.J. BUSH(7), Ph. D'ARCO(8),                 *
 *  M. LLUNELL(9), M. CAUSA'(10), Y. NOEL(8), L. MASCHIO(1,11), A. ERBA(1,11)  *
 *  M. RE'RAT(14), S. CASASSA(1,11), B.G. SEARLE(2), J.K. DESMARAIS(1)         *
 *                                                                             *
 *        CONTRIBUTIONS TO THE CODE HAVE ALSO BEEN GIVEN BY                    *
 *                                                                             *
 *  M. FERRABONE(1,11), M. DE LA PIERRE(1,11), M. FERRERO(1,11),               *
 *  J. BAIMA(1,11), E. ALBANESE(1,11), M.F. PEINTINGER(12), R. BAST(13),       *
 *  B. KIRTMAN(15), V. LACIVITA(1,11), R. DEMICHELIS(1,16)                     *
 *  G. BRANDEBURG(17), S. SALUSTRO(1,11), G. SANSONE(1,11)                     *
 *  M.T. RUGGIERO(18), L.E. DAGA(1), L. DONA'(1), A. COSSARD(1)                *
 *                                                                             *
 * (1) THEORETICAL CHEMISTRY GROUP - UNIVERSITA' DI TORINO - TORINO (ITALY)    *
 * (2) SCIENTIFIC COMPUTING DEPARTMENT - STFC DARESBURY (UK)                   *
 * (3) UNIVERSIDAD AUTONOMA DEL ESTADO DE MORELOS - CUERNAVACA (MEXICO)        *
 * (4) UNIVERSITE' DE LORRAINE - NANCY (FRANCE)                                *
 * (5) UNIVERSITAET STUTTGART- STUTTGART (GERMANY)                             *
 * (6) IMPERIAL COLLEGE - LONDON (UK)                                          *
 * (7) SCIENTIFIC COMPUTING DEPARTMENT - STFC RAL (UK)                         *
 * (8) UPMC - SORBONNE UNIVERSITES - PARIS (FRANCE)                            *
 * (9) UNIVERSIDAD DE BARCELONA - BARCELONA (SPAIN)                            *
 *(10) UNIVERSITA' DI NAPOLI "FEDERICO II" - NAPOLI (ITALY)                    *
 *(11) NIS - NANOSTRUCTURED INTERFACES AND SURFACES - TORINO (ITALY)           *
 *(12) MPI FUER CHEMISCHE ENERGIEKONVERSION - MUELHEIM AN DER RUHR (GERMANY)   *
 *(13) UNIVERSITY OF TROMSO - TROMSO (NORWAY)                                  *
 *(14) UNIVERSITE' DE PAU ET DES PAYS DE L'ADOUR - PAU (FRANCE)                *
 *(15) UNIVERSITY OF CALIFORNIA SANTA BARBARA - SANTA BARBARA (USA)            *
 *(16) CURTIN UNIVERSITY - PERTH (AUSTRALIA)                                   *
 *(17) UNIVERSITY COLLEGE LONDON - LONDON (UK)                                 *
 *(18) UNIVERSITY OF VERMONT - BURLINGTON (USA)                                *
 *                                                                             *
 *******************************************************************************
 EEEEEEEEEE STARTING  DATE 31 07 2025 TIME 12:14:58.4
 Check                                                                           
 filename=fort.34                        0           0

 GEOMETRY INPUT FROM EXTERNAL FILE (FORTRAN UNIT 34)
 3D - CRYSTAL 

 *******************************************************************************
 LATTICE PARAMETERS  (ANGSTROMS AND DEGREES) - PRIMITIVE CELL
       A          B          C        ALPHA      BETA     GAMMA        VOLUME
   11.06603    4.02930   11.08676    90.00000 120.00323  90.00000    428.097712
 INFORMATION **** CHKGRP **** SPGR WITH NO INVERSION

 NUMBER OF IRREDUCIBLE ATOMS IN THE CELL:   18

 CARTESIAN COORDINATES (ANGSTROM) - IRREDUCIBLE ATOMS AND SYMMETRY RELATED

 AT.IRR.  AT  AT.N.          X                   Y                   Z
     1     1    12   -6.885461921524E+00  1.753915268893E+00  2.421993553739E+00
     1     2    12    6.885461921524E+00 -2.607368098520E-01 -2.421993553739E+00
     3     3    12   -1.420082743767E+00 -2.612395985180E-01  2.378320399934E+00
     3     4    12    1.420082743767E+00  1.753412480227E+00 -2.378320399934E+00
     5     5    53    1.350650007278E+00  1.781341450586E+00  8.479103929140E-01
     5     6    53   -1.350650007278E+00 -2.333106281590E-01 -8.479103929140E-01
     7     7    53    1.410210966000E+00 -2.333928864320E-01  3.952641832342E+00
     7     8    53   -1.410210966000E+00  1.781259192313E+00 -3.952641832342E+00
     9     9    53   -4.188253971350E+00 -2.305397536230E-01  4.057526588143E+00
     9    10    53    4.188253971350E+00  1.784112325122E+00 -4.057526588143E+00
    11    11    53   -4.117043655601E+00  1.784107836258E+00  7.425107892750E-01
    11    12    53    4.117043655601E+00 -2.305442424870E-01 -7.425107892750E-01
    13    13     8    2.904066050527E+00 -1.249756812795E+00  1.183497634902E+00
    13    14     8   -2.904066050527E+00  7.648952659500E-01 -1.183497634902E+00
    15    15     8    9.369978661200E-01 -1.221053604203E+00 -6.606051809810E-01
    15    16     8   -9.369978661200E-01  7.935984745420E-01  6.606051809810E-01
    17    17     8    3.613835698110E-01 -1.151881223051E+00  1.980259523400E+00
    17    18     8   -3.613835698110E-01  8.627708556940E-01 -1.980259523400E+00
    19    19     8    2.399687733825E+00  8.624276989150E-01  2.820336995740E+00
    19    20     8   -2.399687733825E+00 -1.152224379830E+00 -2.820336995740E+00
    21    21     8   -1.431397403760E-01  7.648221735150E-01  3.617110668359E+00
    21    22     8    1.431397403760E-01 -1.249829905230E+00 -3.617110668359E+00
    23    23     8    7.368196788982E+00  7.936386910660E-01 -4.139735591340E+00
    23    24     8   -7.368196788982E+00 -1.221013387679E+00  4.139735591340E+00
    25    25     8   -5.687696725381E+00  8.459933972780E-01  3.816294575676E+00
    25    26     8    5.687696725381E+00 -1.168658681467E+00 -3.816294575676E+00
    27    27     8    1.971701279393E+00  7.924743074180E-01 -4.108444497180E+00
    27    28     8   -1.971701279393E+00 -1.222177771327E+00  4.108444497180E+00
    29    29     8   -3.158346410782E+00  7.288391602080E-01  2.827304756081E+00
    29    30     8    3.158346410782E+00 -1.285812918537E+00 -2.827304756081E+00
    31    31     8   -5.146736921782E+00 -1.285851339298E+00  1.972854966428E+00
    31    32     8    5.146736921782E+00  7.288007394470E-01 -1.972854966428E+00
    33    33     8   -2.617567268155E+00 -1.168496153877E+00  9.835080113080E-01
    33    34     8    2.617567268155E+00  8.461559248680E-01 -9.835080113080E-01
    35    35     8   -4.732741210889E+00 -1.222198362919E+00 -6.923780452410E-01
    35    36     8    4.732741210889E+00  7.924537158260E-01  6.923780452410E-01

 SPACE  GROUP  N.                     :    4
 NUMBER OF SYMMETRY OPERATORS         :    2
 *******************************************************************************
 LATTICE PARAMETERS (ANGSTROMS AND DEGREES) - BOHR = 0.5291772083 ANGSTROM
 PRIMITIVE CELL - CENTRING CODE 1/0 VOLUME=   428.097712 - DENSITY  5.799 g/cm^3
         A              B              C           ALPHA      BETA       GAMMA 
    11.06602927     4.02930416    11.08675707    90.000000 120.003227  90.000000
 *******************************************************************************
 ATOMS IN THE ASYMMETRIC UNIT   18 - ATOMS IN THE UNIT CELL:   36
     ATOM                 X/A                 Y/B                 Z/C    
 *******************************************************************************
      1 T  12 MG   -4.958089048255E-01  4.352898665227E-01  2.522963126495E-01
      2 F  12 MG    4.958089048255E-01 -6.471013347735E-02 -2.522963126495E-01
      3 T  12 MG   -4.213568427506E-03 -6.483491647866E-02  2.477203611558E-01
      4 F  12 MG    4.213568427506E-03  4.351650835213E-01 -2.477203611558E-01
      5 T  53 I     1.662979716649E-01  4.420965459445E-01  8.830715173101E-02
      6 F  53 I    -1.662979716649E-01 -5.790345405554E-02 -8.830715173101E-02
      7 T  53 I     3.336984214547E-01 -5.792386906264E-02  4.116792917320E-01
      8 F  53 I    -3.336984214547E-01  4.420761309374E-01 -4.116792917320E-01
      9 T  53 I    -1.667288122755E-01 -5.721577339711E-02  4.226313825486E-01
     10 F  53 I     1.667288122755E-01  4.427842266029E-01 -4.226313825486E-01
     11 T  53 I    -3.332857705074E-01  4.427831125485E-01  7.735648330522E-02
     12 F  53 I     3.332857705074E-01 -5.721688745151E-02 -7.735648330522E-02
     13 T   8 O     3.241834944131E-01 -3.101669082171E-01  1.232524200951E-01
     14 F   8 O    -3.241834944131E-01  1.898330917829E-01 -1.232524200951E-01
     15 T   8 O     5.019779679535E-02 -3.030432939477E-01 -6.880980908711E-02
     16 F   8 O    -5.019779679535E-02  1.969567060523E-01  6.880980908711E-02
     17 T   8 O     1.359946028175E-01 -2.858759671716E-01  2.062515801730E-01
     18 F   8 O    -1.359946028175E-01  2.141240328284E-01 -2.062515801730E-01
     19 T   8 O     3.640231080737E-01  2.140388675578E-01  2.937394756609E-01
     20 F   8 O    -3.640231080737E-01 -2.859611324422E-01 -2.937394756609E-01
     21 T   8 O     1.758217292100E-01  1.898149515701E-01  3.767398638318E-01
     22 F   8 O    -1.758217292100E-01 -3.101850484299E-01 -3.767398638318E-01
     23 T   8 O     4.497916485688E-01  1.969666870620E-01 -4.312096562659E-01
     24 F   8 O    -4.497916485688E-01 -3.030333129380E-01  4.312096562659E-01
     25 T   8 O    -3.148132214369E-01  2.099601728267E-01  3.975133882941E-01
     26 F   8 O     3.148132214369E-01 -2.900398271733E-01 -3.975133882941E-01
     27 T   8 O    -3.622522238867E-02  1.966777082204E-01 -4.279236973846E-01
     28 F   8 O     3.622522238867E-02 -3.033222917796E-01  4.279236973846E-01
     29 T   8 O    -1.378603621296E-01  1.808846221880E-01  2.944928480382E-01
     30 F   8 O     1.378603621296E-01 -3.191153778120E-01 -2.944928480382E-01
     31 T   8 O    -3.621284716269E-01 -3.191249131460E-01  2.055077595684E-01
     32 F   8 O     3.621284716269E-01  1.808750868540E-01 -2.055077595684E-01
     33 T   8 O    -1.852105744679E-01 -2.899994907818E-01  1.024500228604E-01
     34 F   8 O     1.852105744679E-01  2.100005092182E-01 -1.024500228604E-01
     35 T   8 O    -4.638014484549E-01 -3.033274022382E-01 -7.209089999707E-02
     36 F   8 O     4.638014484549E-01  1.966725977618E-01  7.209089999707E-02

 T = ATOM BELONGING TO THE ASYMMETRIC UNIT
 *******************************************************************************
 * GEOMETRY EDITING - INPUT COORDINATES ARE GIVEN IN ANGSTROM         
 *******************************************************************************

 GEOMETRY NOW FULLY CONSISTENT WITH THE GROUP

 GCALCO - MAX INDICES DIRECT LATTICE VECTOR    11    26    10
 NO.OF VECTORS CREATED 6999 STARS 1822 RMAX   168.90884 BOHR

 GEOMETRY FOR WAVE FUNCTION - DIMENSIONALITY OF THE SYSTEM    3
 (NON PERIODIC DIRECTION: LATTICE PARAMETER FORMALLY SET TO 500)
 *******************************************************************************
 LATTICE PARAMETERS (ANGSTROMS AND DEGREES) - BOHR = 0.5291772083 ANGSTROM
 PRIMITIVE CELL - CENTRING CODE 1/0 VOLUME=   428.097712 - DENSITY  5.799 g/cm^3
         A              B              C           ALPHA      BETA       GAMMA 
    11.06602927     4.02930416    11.08675707    90.000000 120.003227  90.000000
 *******************************************************************************
 ATOMS IN THE ASYMMETRIC UNIT   18 - ATOMS IN THE UNIT CELL:   36
     ATOM                 X/A                 Y/B                 Z/C    
 *******************************************************************************
      1 T  12 MG   -4.958089048255E-01  4.352898665227E-01  2.522963126495E-01
      2 F  12 MG    4.958089048255E-01 -6.471013347735E-02 -2.522963126495E-01
      3 T  12 MG   -4.213568427506E-03 -6.483491647866E-02  2.477203611558E-01
      4 F  12 MG    4.213568427506E-03  4.351650835213E-01 -2.477203611558E-01
      5 T  53 I     1.662979716649E-01  4.420965459445E-01  8.830715173101E-02
      6 F  53 I    -1.662979716649E-01 -5.790345405554E-02 -8.830715173101E-02
      7 T  53 I     3.336984214547E-01 -5.792386906264E-02  4.116792917320E-01
      8 F  53 I    -3.336984214547E-01  4.420761309374E-01 -4.116792917320E-01
      9 T  53 I    -1.667288122755E-01 -5.721577339711E-02  4.226313825486E-01
     10 F  53 I     1.667288122755E-01  4.427842266029E-01 -4.226313825486E-01
     11 T  53 I    -3.332857705074E-01  4.427831125485E-01  7.735648330522E-02
     12 F  53 I     3.332857705074E-01 -5.721688745151E-02 -7.735648330522E-02
     13 T   8 O     3.241834944131E-01 -3.101669082171E-01  1.232524200951E-01
     14 F   8 O    -3.241834944131E-01  1.898330917829E-01 -1.232524200951E-01
     15 T   8 O     5.019779679535E-02 -3.030432939477E-01 -6.880980908711E-02
     16 F   8 O    -5.019779679535E-02  1.969567060523E-01  6.880980908711E-02
     17 T   8 O     1.359946028175E-01 -2.858759671716E-01  2.062515801730E-01
     18 F   8 O    -1.359946028175E-01  2.141240328284E-01 -2.062515801730E-01
     19 T   8 O     3.640231080737E-01  2.140388675578E-01  2.937394756609E-01
     20 F   8 O    -3.640231080737E-01 -2.859611324422E-01 -2.937394756609E-01
     21 T   8 O     1.758217292100E-01  1.898149515701E-01  3.767398638318E-01
     22 F   8 O    -1.758217292100E-01 -3.101850484299E-01 -3.767398638318E-01
     23 T   8 O     4.497916485688E-01  1.969666870620E-01 -4.312096562659E-01
     24 F   8 O    -4.497916485688E-01 -3.030333129380E-01  4.312096562659E-01
     25 T   8 O    -3.148132214369E-01  2.099601728267E-01  3.975133882941E-01
     26 F   8 O     3.148132214369E-01 -2.900398271733E-01 -3.975133882941E-01
     27 T   8 O    -3.622522238867E-02  1.966777082204E-01 -4.279236973846E-01
     28 F   8 O     3.622522238867E-02 -3.033222917796E-01  4.279236973846E-01
     29 T   8 O    -1.378603621296E-01  1.808846221880E-01  2.944928480382E-01
     30 F   8 O     1.378603621296E-01 -3.191153778120E-01 -2.944928480382E-01
     31 T   8 O    -3.621284716269E-01 -3.191249131460E-01  2.055077595684E-01
     32 F   8 O     3.621284716269E-01  1.808750868540E-01 -2.055077595684E-01
     33 T   8 O    -1.852105744679E-01 -2.899994907818E-01  1.024500228604E-01
     34 F   8 O     1.852105744679E-01  2.100005092182E-01 -1.024500228604E-01
     35 T   8 O    -4.638014484549E-01 -3.033274022382E-01 -7.209089999707E-02
     36 F   8 O     4.638014484549E-01  1.966725977618E-01  7.209089999707E-02

 T = ATOM BELONGING TO THE ASYMMETRIC UNIT

 ****    2 SYMMOPS - TRANSLATORS IN FRACTIONAL UNITS
 **** MATRICES AND TRANSLATORS IN THE CRYSTALLOGRAPHIC REFERENCE FRAME
   V INV                    ROTATION MATRICES                   TRANSLATORS
   1   1  1.00  0.00  0.00  0.00  1.00  0.00  0.00  0.00  1.00  0.00  0.00  0.00
   2   2 -1.00  0.00 -0.00  0.00  1.00  0.00  0.00  0.00 -1.00  0.00  0.50  0.00

 DIRECT LATTICE VECTORS CARTESIAN COMPONENTS (ANGSTROM)
          X                    Y                    Z
   0.110660292543E+02   0.000000000000E+00   0.528498179000E-03
   0.000000000000E+00   0.402930415749E+01   0.000000000000E+00
  -0.554437780518E+01   0.000000000000E+00   0.960083626433E+01


 CARTESIAN COORDINATES - PRIMITIVE CELL
 *******************************************************************************
 *      ATOM          X(ANGSTROM)         Y(ANGSTROM)         Z(ANGSTROM)
 *******************************************************************************
    1    12 MG   -6.885461921524E+00  1.753915268893E+00  2.421993553739E+00
    2    12 MG    6.885461921524E+00 -2.607368098520E-01 -2.421993553739E+00
    3    12 MG   -1.420082743767E+00 -2.612395985180E-01  2.378320399934E+00
    4    12 MG    1.420082743767E+00  1.753412480227E+00 -2.378320399934E+00
    5    53 I     1.350650007278E+00  1.781341450586E+00  8.479103929140E-01
    6    53 I    -1.350650007278E+00 -2.333106281590E-01 -8.479103929140E-01
    7    53 I     1.410210966000E+00 -2.333928864320E-01  3.952641832342E+00
    8    53 I    -1.410210966000E+00  1.781259192313E+00 -3.952641832342E+00
    9    53 I    -4.188253971350E+00 -2.305397536230E-01  4.057526588143E+00
   10    53 I     4.188253971350E+00  1.784112325122E+00 -4.057526588143E+00
   11    53 I    -4.117043655601E+00  1.784107836258E+00  7.425107892750E-01
   12    53 I     4.117043655601E+00 -2.305442424870E-01 -7.425107892750E-01
   13     8 O     2.904066050527E+00 -1.249756812795E+00  1.183497634902E+00
   14     8 O    -2.904066050527E+00  7.648952659500E-01 -1.183497634902E+00
   15     8 O     9.369978661200E-01 -1.221053604203E+00 -6.606051809810E-01
   16     8 O    -9.369978661200E-01  7.935984745420E-01  6.606051809810E-01
   17     8 O     3.613835698110E-01 -1.151881223051E+00  1.980259523400E+00
   18     8 O    -3.613835698110E-01  8.627708556940E-01 -1.980259523400E+00
   19     8 O     2.399687733825E+00  8.624276989150E-01  2.820336995740E+00
   20     8 O    -2.399687733825E+00 -1.152224379830E+00 -2.820336995740E+00
   21     8 O    -1.431397403760E-01  7.648221735150E-01  3.617110668359E+00
   22     8 O     1.431397403760E-01 -1.249829905230E+00 -3.617110668359E+00
   23     8 O     7.368196788982E+00  7.936386910660E-01 -4.139735591340E+00
   24     8 O    -7.368196788982E+00 -1.221013387679E+00  4.139735591340E+00
   25     8 O    -5.687696725381E+00  8.459933972780E-01  3.816294575676E+00
   26     8 O     5.687696725381E+00 -1.168658681467E+00 -3.816294575676E+00
   27     8 O     1.971701279393E+00  7.924743074180E-01 -4.108444497180E+00
   28     8 O    -1.971701279393E+00 -1.222177771327E+00  4.108444497180E+00
   29     8 O    -3.158346410782E+00  7.288391602080E-01  2.827304756081E+00
   30     8 O     3.158346410782E+00 -1.285812918537E+00 -2.827304756081E+00
   31     8 O    -5.146736921782E+00 -1.285851339298E+00  1.972854966428E+00
   32     8 O     5.146736921782E+00  7.288007394470E-01 -1.972854966428E+00
   33     8 O    -2.617567268155E+00 -1.168496153877E+00  9.835080113080E-01
   34     8 O     2.617567268155E+00  8.461559248680E-01 -9.835080113080E-01
   35     8 O    -4.732741210889E+00 -1.222198362919E+00 -6.923780452410E-01
   36     8 O     4.732741210889E+00  7.924537158260E-01  6.923780452410E-01
 WARNING **** CRYSTA **** TESTGEOM  DIRECTIVE - GEOMETRY EDITING COMPLETE
 TTTTTTTTTTTTTTTTTTTTTTTTTTTTTT END         TELAPSE        0.02 TCPU        0.02
 EEEEEEEEEE TERMINATION  DATE 31 07 2025 TIME 12:14:58.4
