
         
 *******************************************************************************
 *                                                                             *
 *                               CRYSTAL23                                     *
 *                      public : 1.0.1 - October 2022                          *
 *                       HTTP://WWW.CRYSTAL.UNITO.IT                           *
 *                                                                             *
 *                              MAIN AUTHORS                                   *
 *                                                                             *
 *  R. DOVESI(1,11), V.R. SAUNDERS(2), C. ROETTI(1,11), R. ORLANDO(1,11),      *
 *  C.M. ZICOVICH-WILSON(1,3), F. PASCALE(4), B. CIVALLERI(1,11),              *
 *  K. DOLL(5), N.M. HARRISON(6), I.J. BUSH(7), Ph. D'ARCO(8),                 *
 *  M. LLUNELL(9), M. CAUSA'(10), Y. NOEL(8), L. MASCHIO(1,11), A. ERBA(1,11)  *
 *  M. RE'RAT(14), S. CASASSA(1,11), B.G. SEARLE(2), J.K. DESMARAIS(1)         *
 *                                                                             *
 *        CONTRIBUTIONS TO THE CODE HAVE ALSO BEEN GIVEN BY                    *
 *                                                                             *
 *  M. FERRABONE(1,11), M. DE LA PIERRE(1,11), M. FERRERO(1,11),               *
 *  J. BAIMA(1,11), E. ALBANESE(1,11), M.F. PEINTINGER(12), R. BAST(13),       *
 *  B. KIRTMAN(15), V. LACIVITA(1,11), R. DEMICHELIS(1,16)                     *
 *  G. BRANDEBURG(17), S. SALUSTRO(1,11), G. SANSONE(1,11)                     *
 *  M.T. RUGGIERO(18), L.E. DAGA(1), L. DONA'(1), A. COSSARD(1)                *
 *                                                                             *
 * (1) THEORETICAL CHEMISTRY GROUP - UNIVERSITA' DI TORINO - TORINO (ITALY)    *
 * (2) SCIENTIFIC COMPUTING DEPARTMENT - STFC DARESBURY (UK)                   *
 * (3) UNIVERSIDAD AUTONOMA DEL ESTADO DE MORELOS - CUERNAVACA (MEXICO)        *
 * (4) UNIVERSITE' DE LORRAINE - NANCY (FRANCE)                                *
 * (5) UNIVERSITAET STUTTGART- STUTTGART (GERMANY)                             *
 * (6) IMPERIAL COLLEGE - LONDON (UK)                                          *
 * (7) SCIENTIFIC COMPUTING DEPARTMENT - STFC RAL (UK)                         *
 * (8) UPMC - SORBONNE UNIVERSITES - PARIS (FRANCE)                            *
 * (9) UNIVERSIDAD DE BARCELONA - BARCELONA (SPAIN)                            *
 *(10) UNIVERSITA' DI NAPOLI "FEDERICO II" - NAPOLI (ITALY)                    *
 *(11) NIS - NANOSTRUCTURED INTERFACES AND SURFACES - TORINO (ITALY)           *
 *(12) MPI FUER CHEMISCHE ENERGIEKONVERSION - MUELHEIM AN DER RUHR (GERMANY)   *
 *(13) UNIVERSITY OF TROMSO - TROMSO (NORWAY)                                  *
 *(14) UNIVERSITE' DE PAU ET DES PAYS DE L'ADOUR - PAU (FRANCE)                *
 *(15) UNIVERSITY OF CALIFORNIA SANTA BARBARA - SANTA BARBARA (USA)            *
 *(16) CURTIN UNIVERSITY - PERTH (AUSTRALIA)                                   *
 *(17) UNIVERSITY COLLEGE LONDON - LONDON (UK)                                 *
 *(18) UNIVERSITY OF VERMONT - BURLINGTON (USA)                                *
 *                                                                             *
 *******************************************************************************
 EEEEEEEEEE STARTING  DATE 31 07 2025 TIME 12:14:58.5
 Check                                                                           
 filename=fort.34                        0           0

 GEOMETRY INPUT FROM EXTERNAL FILE (FORTRAN UNIT 34)
 3D - CRYSTAL 

 *******************************************************************************
 LATTICE PARAMETERS  (ANGSTROMS AND DEGREES) - PRIMITIVE CELL
       A          B          C        ALPHA      BETA     GAMMA        VOLUME
   11.07449    3.94511   11.09054    90.00000 120.01371  90.00000    419.571533
 INFORMATION **** CHKGRP **** SPGR WITH NO INVERSION

 NUMBER OF IRREDUCIBLE ATOMS IN THE CELL:   18

 CARTESIAN COORDINATES (ANGSTROM) - IRREDUCIBLE ATOMS AND SYMMETRY RELATED

 AT.IRR.  AT  AT.N.          X                   Y                   Z
     1     1    12   -6.894430072099E+00  1.722917814990E+00  2.420129718627E+00
     1     2    12    6.894430072099E+00 -2.496369999900E-01 -2.420129718627E+00
     3     3    12   -1.415859947538E+00 -2.499327569440E-01  2.382613149768E+00
     3     4    12    1.415859947538E+00  1.722622058036E+00 -2.382613149768E+00
     5     5    53    1.355223908603E+00  1.716252133819E+00  8.419112112100E-01
     5     6    53   -1.355223908603E+00 -2.563026811610E-01 -8.419112112100E-01
     7     7    53    1.408893439715E+00 -2.562379638140E-01  3.959408556474E+00
     7     8    53   -1.408893439715E+00  1.716316851166E+00 -3.959408556474E+00
     9     9    53   -4.186538632042E+00 -2.543988354990E-01  4.051363996137E+00
     9    10    53    4.186538632042E+00  1.718155979481E+00 -4.051363996137E+00
    11    11    53   -4.123810631793E+00  1.718083497718E+00  7.514136905430E-01
    11    12    53    4.123810631793E+00 -2.544713172620E-01 -7.514136905430E-01
    13    13     8    2.901173901376E+00 -1.211075314505E+00  1.169399227873E+00
    13    14     8   -2.901173901375E+00  7.614795004750E-01 -1.169399227873E+00
    15    15     8    9.290334599740E-01 -1.187149661424E+00 -6.567518966080E-01
    15    16     8   -9.290334599740E-01  7.854051535560E-01  6.567518966080E-01
    17    17     8    3.716161012220E-01 -1.125670668987E+00  1.976874083333E+00
    17    18     8   -3.716161012220E-01  8.468841459930E-01 -1.976874083333E+00
    19    19     8    2.392573598433E+00  8.468800655490E-01  2.824431797260E+00
    19    20     8   -2.392573598433E+00 -1.125674749431E+00 -2.824431797260E+00
    21    21     8   -1.371173844480E-01  7.614479312860E-01  3.631902255026E+00
    21    22     8    1.371173844480E-01 -1.211106883694E+00 -3.631902255026E+00
    23    23     8    7.381346923443E+00  7.854696870740E-01 -4.146059372025E+00
    23    24     8   -7.381346923443E+00 -1.187085127906E+00  4.146059372025E+00
    25    25     8   -5.683799761681E+00  8.295560779200E-01  3.809023211346E+00
    25    26     8    5.683799761681E+00 -1.142998737060E+00 -3.809023211346E+00
    27    27     8    1.963000323591E+00  7.857428171910E-01 -4.121902987002E+00
    27    28     8   -1.963000323591E+00 -1.186811997789E+00  4.121902987002E+00
    29    29     8   -3.160963600403E+00  7.300983380410E-01  2.831707175802E+00
    29    30     8    3.160963600403E+00 -1.242456476939E+00 -2.831707175802E+00
    31    31     8   -5.149340601480E+00 -1.242520406778E+00  1.971080373426E+00
    31    32     8    5.149340601480E+00  7.300344082020E-01 -1.971080373426E+00
    33    33     8   -2.626647384671E+00 -1.142941180584E+00  9.937581374960E-01
    33    34     8    2.626647384671E+00  8.296136343960E-01 -9.937581374960E-01
    35    35     8   -4.727108636646E+00 -1.186899896366E+00 -6.794517283040E-01
    35    36     8    4.727108636646E+00  7.856549186140E-01  6.794517283040E-01

 SPACE  GROUP  N.                     :    4
 NUMBER OF SYMMETRY OPERATORS         :    2
 *******************************************************************************
 LATTICE PARAMETERS (ANGSTROMS AND DEGREES) - BOHR = 0.5291772083 ANGSTROM
 PRIMITIVE CELL - CENTRING CODE 1/0 VOLUME=   419.571533 - DENSITY  5.917 g/cm^3
         A              B              C           ALPHA      BETA       GAMMA 
    11.07448929     3.94510963    11.09053798    90.000000 120.013710  90.000000
 *******************************************************************************
 ATOMS IN THE ASYMMETRIC UNIT   18 - ATOMS IN THE UNIT CELL:   36
     ATOM                 X/A                 Y/B                 Z/C    
 *******************************************************************************
      1 T  12 MG   -4.963902223171E-01  4.367224175232E-01  2.519107479027E-01
      2 F  12 MG    4.963902223171E-01 -6.327758247685E-02 -2.519107479027E-01
      3 T  12 MG   -3.605917735028E-03 -6.335255047058E-02  2.480819186224E-01
      4 F  12 MG    3.605917735028E-03  4.366474495294E-01 -2.480819186224E-01
      5 T  53 I     1.662886749449E-01  4.350328114548E-01  8.768763550790E-02
      6 F  53 I    -1.662886749449E-01 -6.496718854518E-02 -8.768763550790E-02
      7 T  53 I     3.337123222721E-01 -6.495078409687E-02  4.123140662740E-01
      8 F  53 I    -3.337123222721E-01  4.350492159031E-01 -4.123140662740E-01
      9 T  53 I    -1.667861895099E-01 -6.448460483000E-02  4.218099677898E-01
     10 F  53 I     1.667861895099E-01  4.355153951700E-01 -4.218099677898E-01
     11 T  53 I    -3.332134848049E-01  4.354970226101E-01  7.818632352967E-02
     12 F  53 I     3.332134848049E-01 -6.450297738990E-02 -7.818632352967E-02
     13 T   8 O     3.229737220927E-01 -3.069814094158E-01  1.218109808998E-01
     14 F   8 O    -3.229737220926E-01  1.930185905842E-01 -1.218109808998E-01
     15 T   8 O     4.964659820640E-02 -3.009167736198E-01 -6.837452673377E-02
     16 F   8 O    -4.964659820640E-02  1.990832263802E-01  6.837452673377E-02
     17 T   8 O     1.366523881963E-01 -2.853331781805E-01  2.058575991465E-01
     18 F   8 O    -1.366523881963E-01  2.146668218195E-01 -2.058575991465E-01
     19 T   8 O     3.633544184788E-01  2.146657875152E-01  2.941426575968E-01
     20 F   8 O    -3.633544184788E-01 -2.853342124848E-01 -2.941426575968E-01
     21 T   8 O     1.770208282132E-01  1.930105884773E-01  3.781888160199E-01
     22 F   8 O    -1.770208282132E-01 -3.069894115227E-01 -3.781888160199E-01
     23 T   8 O     4.503541350598E-01  1.990995842318E-01 -4.316252610399E-01
     24 F   8 O    -4.503541350598E-01 -3.009004157682E-01  4.316252610399E-01
     25 T   8 O    -3.146339862807E-01  2.102745311867E-01  3.965537131937E-01
     26 F   8 O     3.146339862807E-01 -2.897254688133E-01 -3.965537131937E-01
     27 T   8 O    -3.768843211945E-02  1.991688168116E-01 -4.291867755832E-01
     28 F   8 O     3.768843211945E-02 -3.008311831884E-01  4.291867755832E-01
     29 T   8 O    -1.377768410932E-01  1.850641443514E-01  2.948214009222E-01
     30 F   8 O     1.377768410932E-01 -3.149358556486E-01 -2.948214009222E-01
     31 T   8 O    -3.622182495838E-01 -3.149520604807E-01  2.051759180263E-01
     32 F   8 O     3.622182495838E-01  1.850479395193E-01 -2.051759180263E-01
     33 T   8 O    -1.853743363070E-01 -2.897108794910E-01  1.034429580779E-01
     34 F   8 O     1.853743363070E-01  2.102891205090E-01 -1.034429580779E-01
     35 T   8 O    -4.623135716840E-01 -3.008534635774E-01 -7.081856517385E-02
     36 F   8 O     4.623135716840E-01  1.991465364226E-01  7.081856517385E-02

 T = ATOM BELONGING TO THE ASYMMETRIC UNIT
 *******************************************************************************
 * GEOMETRY EDITING - INPUT COORDINATES ARE GIVEN IN ANGSTROM         
 *******************************************************************************

 GEOMETRY NOW FULLY CONSISTENT WITH THE GROUP

 GCALCO - MAX INDICES DIRECT LATTICE VECTOR    11    26    10
 NO.OF VECTORS CREATED 6999 STARS 1822 RMAX   167.88331 BOHR

 GEOMETRY FOR WAVE FUNCTION - DIMENSIONALITY OF THE SYSTEM    3
 (NON PERIODIC DIRECTION: LATTICE PARAMETER FORMALLY SET TO 500)
 *******************************************************************************
 LATTICE PARAMETERS (ANGSTROMS AND DEGREES) - BOHR = 0.5291772083 ANGSTROM
 PRIMITIVE CELL - CENTRING CODE 1/0 VOLUME=   419.571533 - DENSITY  5.917 g/cm^3
         A              B              C           ALPHA      BETA       GAMMA 
    11.07448929     3.94510963    11.09053798    90.000000 120.013710  90.000000
 *******************************************************************************
 ATOMS IN THE ASYMMETRIC UNIT   18 - ATOMS IN THE UNIT CELL:   36
     ATOM                 X/A                 Y/B                 Z/C    
 *******************************************************************************
      1 T  12 MG   -4.963902223171E-01  4.367224175232E-01  2.519107479027E-01
      2 F  12 MG    4.963902223171E-01 -6.327758247685E-02 -2.519107479027E-01
      3 T  12 MG   -3.605917735028E-03 -6.335255047058E-02  2.480819186224E-01
      4 F  12 MG    3.605917735028E-03  4.366474495294E-01 -2.480819186224E-01
      5 T  53 I     1.662886749449E-01  4.350328114548E-01  8.768763550790E-02
      6 F  53 I    -1.662886749449E-01 -6.496718854518E-02 -8.768763550790E-02
      7 T  53 I     3.337123222721E-01 -6.495078409687E-02  4.123140662740E-01
      8 F  53 I    -3.337123222721E-01  4.350492159031E-01 -4.123140662740E-01
      9 T  53 I    -1.667861895099E-01 -6.448460483000E-02  4.218099677898E-01
     10 F  53 I     1.667861895099E-01  4.355153951700E-01 -4.218099677898E-01
     11 T  53 I    -3.332134848049E-01  4.354970226101E-01  7.818632352967E-02
     12 F  53 I     3.332134848049E-01 -6.450297738990E-02 -7.818632352967E-02
     13 T   8 O     3.229737220927E-01 -3.069814094158E-01  1.218109808998E-01
     14 F   8 O    -3.229737220927E-01  1.930185905842E-01 -1.218109808998E-01
     15 T   8 O     4.964659820640E-02 -3.009167736198E-01 -6.837452673377E-02
     16 F   8 O    -4.964659820640E-02  1.990832263802E-01  6.837452673377E-02
     17 T   8 O     1.366523881963E-01 -2.853331781805E-01  2.058575991465E-01
     18 F   8 O    -1.366523881963E-01  2.146668218195E-01 -2.058575991465E-01
     19 T   8 O     3.633544184788E-01  2.146657875152E-01  2.941426575968E-01
     20 F   8 O    -3.633544184788E-01 -2.853342124848E-01 -2.941426575968E-01
     21 T   8 O     1.770208282132E-01  1.930105884773E-01  3.781888160199E-01
     22 F   8 O    -1.770208282132E-01 -3.069894115227E-01 -3.781888160199E-01
     23 T   8 O     4.503541350598E-01  1.990995842318E-01 -4.316252610399E-01
     24 F   8 O    -4.503541350598E-01 -3.009004157682E-01  4.316252610399E-01
     25 T   8 O    -3.146339862807E-01  2.102745311867E-01  3.965537131937E-01
     26 F   8 O     3.146339862807E-01 -2.897254688133E-01 -3.965537131937E-01
     27 T   8 O    -3.768843211945E-02  1.991688168116E-01 -4.291867755832E-01
     28 F   8 O     3.768843211945E-02 -3.008311831884E-01  4.291867755832E-01
     29 T   8 O    -1.377768410932E-01  1.850641443514E-01  2.948214009222E-01
     30 F   8 O     1.377768410932E-01 -3.149358556486E-01 -2.948214009222E-01
     31 T   8 O    -3.622182495838E-01 -3.149520604807E-01  2.051759180263E-01
     32 F   8 O     3.622182495838E-01  1.850479395193E-01 -2.051759180263E-01
     33 T   8 O    -1.853743363070E-01 -2.897108794910E-01  1.034429580779E-01
     34 F   8 O     1.853743363070E-01  2.102891205090E-01 -1.034429580779E-01
     35 T   8 O    -4.623135716840E-01 -3.008534635774E-01 -7.081856517385E-02
     36 F   8 O     4.623135716840E-01  1.991465364226E-01  7.081856517385E-02

 T = ATOM BELONGING TO THE ASYMMETRIC UNIT

 ****    2 SYMMOPS - TRANSLATORS IN FRACTIONAL UNITS
 **** MATRICES AND TRANSLATORS IN THE CRYSTALLOGRAPHIC REFERENCE FRAME
   V INV                    ROTATION MATRICES                   TRANSLATORS
   1   1  1.00  0.00  0.00  0.00  1.00  0.00  0.00  0.00  1.00  0.00  0.00  0.00
   2   2 -1.00  0.00  0.00  0.00  1.00  0.00 -0.00  0.00 -1.00  0.00  0.50  0.00

 DIRECT LATTICE VECTORS CARTESIAN COMPONENTS (ANGSTROM)
          X                    Y                    Z
   0.110744891831E+02   0.000000000000E+00  -0.150988069500E-02
   0.000000000000E+00   0.394510962996E+01  -0.000000000000E+00
  -0.554625769676E+01   0.000000000000E+00   0.960411673085E+01


 CARTESIAN COORDINATES - PRIMITIVE CELL
 *******************************************************************************
 *      ATOM          X(ANGSTROM)         Y(ANGSTROM)         Z(ANGSTROM)
 *******************************************************************************
    1    12 MG   -6.894430072099E+00  1.722917814990E+00  2.420129718627E+00
    2    12 MG    6.894430072099E+00 -2.496369999900E-01 -2.420129718627E+00
    3    12 MG   -1.415859947538E+00 -2.499327569440E-01  2.382613149768E+00
    4    12 MG    1.415859947538E+00  1.722622058036E+00 -2.382613149768E+00
    5    53 I     1.355223908603E+00  1.716252133819E+00  8.419112112100E-01
    6    53 I    -1.355223908603E+00 -2.563026811610E-01 -8.419112112100E-01
    7    53 I     1.408893439715E+00 -2.562379638140E-01  3.959408556474E+00
    8    53 I    -1.408893439715E+00  1.716316851166E+00 -3.959408556474E+00
    9    53 I    -4.186538632042E+00 -2.543988354990E-01  4.051363996137E+00
   10    53 I     4.186538632042E+00  1.718155979481E+00 -4.051363996137E+00
   11    53 I    -4.123810631793E+00  1.718083497718E+00  7.514136905430E-01
   12    53 I     4.123810631793E+00 -2.544713172620E-01 -7.514136905430E-01
   13     8 O     2.901173901376E+00 -1.211075314505E+00  1.169399227873E+00
   14     8 O    -2.901173901376E+00  7.614795004750E-01 -1.169399227873E+00
   15     8 O     9.290334599740E-01 -1.187149661424E+00 -6.567518966080E-01
   16     8 O    -9.290334599740E-01  7.854051535560E-01  6.567518966080E-01
   17     8 O     3.716161012220E-01 -1.125670668987E+00  1.976874083333E+00
   18     8 O    -3.716161012220E-01  8.468841459930E-01 -1.976874083333E+00
   19     8 O     2.392573598433E+00  8.468800655490E-01  2.824431797260E+00
   20     8 O    -2.392573598433E+00 -1.125674749431E+00 -2.824431797260E+00
   21     8 O    -1.371173844480E-01  7.614479312860E-01  3.631902255026E+00
   22     8 O     1.371173844480E-01 -1.211106883694E+00 -3.631902255026E+00
   23     8 O     7.381346923443E+00  7.854696870740E-01 -4.146059372025E+00
   24     8 O    -7.381346923443E+00 -1.187085127906E+00  4.146059372025E+00
   25     8 O    -5.683799761681E+00  8.295560779200E-01  3.809023211346E+00
   26     8 O     5.683799761681E+00 -1.142998737060E+00 -3.809023211346E+00
   27     8 O     1.963000323591E+00  7.857428171910E-01 -4.121902987002E+00
   28     8 O    -1.963000323591E+00 -1.186811997789E+00  4.121902987002E+00
   29     8 O    -3.160963600403E+00  7.300983380410E-01  2.831707175802E+00
   30     8 O     3.160963600403E+00 -1.242456476939E+00 -2.831707175802E+00
   31     8 O    -5.149340601480E+00 -1.242520406778E+00  1.971080373426E+00
   32     8 O     5.149340601480E+00  7.300344082020E-01 -1.971080373426E+00
   33     8 O    -2.626647384671E+00 -1.142941180584E+00  9.937581374960E-01
   34     8 O     2.626647384671E+00  8.296136343960E-01 -9.937581374960E-01
   35     8 O    -4.727108636646E+00 -1.186899896366E+00 -6.794517283040E-01
   36     8 O     4.727108636646E+00  7.856549186140E-01  6.794517283040E-01
 WARNING **** CRYSTA **** TESTGEOM  DIRECTIVE - GEOMETRY EDITING COMPLETE
 TTTTTTTTTTTTTTTTTTTTTTTTTTTTTT END         TELAPSE        0.02 TCPU        0.02
 EEEEEEEEEE TERMINATION  DATE 31 07 2025 TIME 12:14:58.5
