
         
 *******************************************************************************
 *                                                                             *
 *                               CRYSTAL23                                     *
 *                      public : 1.0.1 - October 2022                          *
 *                       HTTP://WWW.CRYSTAL.UNITO.IT                           *
 *                                                                             *
 *                              MAIN AUTHORS                                   *
 *                                                                             *
 *  R. DOVESI(1,11), V.R. SAUNDERS(2), C. ROETTI(1,11), R. ORLANDO(1,11),      *
 *  C.M. ZICOVICH-WILSON(1,3), F. PASCALE(4), B. CIVALLERI(1,11),              *
 *  K. DOLL(5), N.M. HARRISON(6), I.J. BUSH(7), Ph. D'ARCO(8),                 *
 *  M. LLUNELL(9), M. CAUSA'(10), Y. NOEL(8), L. MASCHIO(1,11), A. ERBA(1,11)  *
 *  M. RE'RAT(14), S. CASASSA(1,11), B.G. SEARLE(2), J.K. DESMARAIS(1)         *
 *                                                                             *
 *        CONTRIBUTIONS TO THE CODE HAVE ALSO BEEN GIVEN BY                    *
 *                                                                             *
 *  M. FERRABONE(1,11), M. DE LA PIERRE(1,11), M. FERRERO(1,11),               *
 *  J. BAIMA(1,11), E. ALBANESE(1,11), M.F. PEINTINGER(12), R. BAST(13),       *
 *  B. KIRTMAN(15), V. LACIVITA(1,11), R. DEMICHELIS(1,16)                     *
 *  G. BRANDEBURG(17), S. SALUSTRO(1,11), G. SANSONE(1,11)                     *
 *  M.T. RUGGIERO(18), L.E. DAGA(1), L. DONA'(1), A. COSSARD(1)                *
 *                                                                             *
 * (1) THEORETICAL CHEMISTRY GROUP - UNIVERSITA' DI TORINO - TORINO (ITALY)    *
 * (2) SCIENTIFIC COMPUTING DEPARTMENT - STFC DARESBURY (UK)                   *
 * (3) UNIVERSIDAD AUTONOMA DEL ESTADO DE MORELOS - CUERNAVACA (MEXICO)        *
 * (4) UNIVERSITE' DE LORRAINE - NANCY (FRANCE)                                *
 * (5) UNIVERSITAET STUTTGART- STUTTGART (GERMANY)                             *
 * (6) IMPERIAL COLLEGE - LONDON (UK)                                          *
 * (7) SCIENTIFIC COMPUTING DEPARTMENT - STFC RAL (UK)                         *
 * (8) UPMC - SORBONNE UNIVERSITES - PARIS (FRANCE)                            *
 * (9) UNIVERSIDAD DE BARCELONA - BARCELONA (SPAIN)                            *
 *(10) UNIVERSITA' DI NAPOLI "FEDERICO II" - NAPOLI (ITALY)                    *
 *(11) NIS - NANOSTRUCTURED INTERFACES AND SURFACES - TORINO (ITALY)           *
 *(12) MPI FUER CHEMISCHE ENERGIEKONVERSION - MUELHEIM AN DER RUHR (GERMANY)   *
 *(13) UNIVERSITY OF TROMSO - TROMSO (NORWAY)                                  *
 *(14) UNIVERSITE' DE PAU ET DES PAYS DE L'ADOUR - PAU (FRANCE)                *
 *(15) UNIVERSITY OF CALIFORNIA SANTA BARBARA - SANTA BARBARA (USA)            *
 *(16) CURTIN UNIVERSITY - PERTH (AUSTRALIA)                                   *
 *(17) UNIVERSITY COLLEGE LONDON - LONDON (UK)                                 *
 *(18) UNIVERSITY OF VERMONT - BURLINGTON (USA)                                *
 *                                                                             *
 *******************************************************************************
 EEEEEEEEEE STARTING  DATE 31 07 2025 TIME 12:14:58.5
 Check                                                                           
 filename=fort.34                        0           0

 GEOMETRY INPUT FROM EXTERNAL FILE (FORTRAN UNIT 34)
 3D - CRYSTAL 

 *******************************************************************************
 LATTICE PARAMETERS  (ANGSTROMS AND DEGREES) - PRIMITIVE CELL
       A          B          C        ALPHA      BETA     GAMMA        VOLUME
   11.07594    3.87761   11.08776    90.00000 120.01711  90.00000    412.329882
 INFORMATION **** CHKGRP **** SPGR WITH NO INVERSION

 NUMBER OF IRREDUCIBLE ATOMS IN THE CELL:   18

 CARTESIAN COORDINATES (ANGSTROM) - IRREDUCIBLE ATOMS AND SYMMETRY RELATED

 AT.IRR.  AT  AT.N.          X                   Y                   Z
     1     1    12   -6.898544902872E+00  1.698867652781E+00  2.416592932035E+00
     1     2    12    6.898544902872E+00 -2.399395710440E-01 -2.416592932035E+00
     3     3    12   -1.412493281292E+00 -2.403833304800E-01  2.384179248067E+00
     3     4    12    1.412493281292E+00  1.698423893345E+00 -2.384179248067E+00
     5     5    53    1.358527617679E+00  1.663469849126E+00  8.372778052290E-01
     5     6    53   -1.358527617679E+00 -2.753373746990E-01 -8.372778052290E-01
     7     7    53    1.406330312132E+00 -2.752610080020E-01  3.962805184451E+00
     7     8    53   -1.406330312132E+00  1.663546215823E+00 -3.962805184451E+00
     9     9    53   -4.183669567878E+00 -2.745053155540E-01  4.043975881672E+00
     9    10    53    4.183669567878E+00  1.664301908271E+00 -4.043975881672E+00
    11    11    53   -4.127512064024E+00  1.664210041683E+00  7.566085114470E-01
    11    12    53    4.127512064024E+00 -2.745971821420E-01 -7.566085114470E-01
    13    13     8    2.898136969516E+00 -1.179967164178E+00  1.158122273497E+00
    13    14     8   -2.898136969516E+00  7.588400596470E-01 -1.158122273497E+00
    15    15     8    9.226525995450E-01 -1.159407345269E+00 -6.527957772300E-01
    15    16     8   -9.226525995450E-01  7.793998785560E-01  6.527957772300E-01
    17    17     8    3.794248592660E-01 -1.104603239115E+00  1.974644767678E+00
    17    18     8   -3.794248592660E-01  8.342039847100E-01 -1.974644767678E+00
    19    19     8    2.385599185248E+00  8.340736052750E-01  2.825413163195E+00
    19    20     8   -2.385599185248E+00 -1.104733618550E+00 -2.825413163195E+00
    21    21     8   -1.333625449020E-01  7.588014839120E-01  3.642076249440E+00
    21    22     8    1.333625449020E-01 -1.180005739913E+00 -3.642076249440E+00
    23    23     8    7.388531939968E+00  7.795517493380E-01 -4.148000296497E+00
    23    24     8   -7.388531939968E+00 -1.159255474487E+00  4.148000296497E+00
    25    25     8   -5.678699713770E+00  8.168641414880E-01  3.801253517893E+00
    25    26     8    5.678699713770E+00 -1.121943082337E+00 -3.801253517893E+00
    27    27     8    1.957089348942E+00  7.804303377580E-01 -4.129896224600E+00
    27    28     8   -1.957089348942E+00 -1.158376886067E+00  4.129896224600E+00
    29    29     8   -3.162769135444E+00  7.308200781480E-01  2.832182698228E+00
    29    30     8    3.162769135444E+00 -1.207987145677E+00 -2.832182698228E+00
    31    31     8   -5.148319929627E+00 -1.208012867010E+00  1.968387068810E+00
    31    32     8    5.148319929627E+00  7.307943568150E-01 -1.968387068810E+00
    33    33     8   -2.632562882650E+00 -1.121807475207E+00  9.992861614540E-01
    33    34     8    2.632562882650E+00  8.169997486180E-01 -9.992861614540E-01
    35    35     8   -4.721960307914E+00 -1.158414525258E+00 -6.703924370020E-01
    35    36     8    4.721960307914E+00  7.803926985670E-01  6.703924370020E-01

 SPACE  GROUP  N.                     :    4
 NUMBER OF SYMMETRY OPERATORS         :    2
 *******************************************************************************
 LATTICE PARAMETERS (ANGSTROMS AND DEGREES) - BOHR = 0.5291772083 ANGSTROM
 PRIMITIVE CELL - CENTRING CODE 1/0 VOLUME=   412.329882 - DENSITY  6.021 g/cm^3
         A              B              C           ALPHA      BETA       GAMMA 
    11.07593682     3.87761445    11.08776483    90.000000 120.017114  90.000000
 *******************************************************************************
 ATOMS IN THE ASYMMETRIC UNIT   18 - ATOMS IN THE UNIT CELL:   36
     ATOM                 X/A                 Y/B                 Z/C    
 *******************************************************************************
      1 T  12 MG   -4.968107915329E-01  4.381218596425E-01  2.516801317287E-01
      2 F  12 MG    4.968107915329E-01 -6.187814035751E-02 -2.516801317287E-01
      3 T  12 MG   -3.176130604508E-03 -6.199258170850E-02  2.483292086620E-01
      4 F  12 MG    3.176130604508E-03  4.380074182915E-01 -2.483292086620E-01
      5 T  53 I     1.663300734983E-01  4.289931017082E-01  8.721697865947E-02
      6 F  53 I    -1.663300734983E-01 -7.100689829177E-02 -8.721697865947E-02
      7 T  53 I     3.336689416397E-01 -7.098720404470E-02  4.127716159024E-01
      8 F  53 I    -3.336689416397E-01  4.290127959553E-01 -4.127716159024E-01
      9 T  53 I    -1.668079193743E-01 -7.079231812754E-02  4.212005824218E-01
     10 F  53 I     1.668079193743E-01  4.292076818725E-01 -4.212005824218E-01
     11 T  53 I    -3.332017490796E-01  4.291839903505E-01  7.878919744672E-02
     12 F  53 I     3.332017490796E-01 -7.081600964955E-02 -7.878919744672E-02
     13 T   8 O     3.220732834965E-01 -3.043023436466E-01  1.206431804761E-01
     14 F   8 O    -3.220732834965E-01  1.956976563534E-01 -1.206431804761E-01
     15 T   8 O     4.925571715942E-02 -2.990001612903E-01 -6.799084883917E-02
     16 F   8 O    -4.925571715942E-02  2.009998387097E-01  6.799084883917E-02
     17 T   8 O     1.372520886181E-01 -2.848667019447E-01  2.056804221940E-01
     18 F   8 O    -1.372520886181E-01  2.151332980553E-01 -2.056804221940E-01
     19 T   8 O     3.627606176749E-01  2.150996744353E-01  2.943055630121E-01
     20 F   8 O    -3.627606176749E-01 -2.849003255647E-01 -2.943055630121E-01
     21 T   8 O     1.779242181566E-01  1.956877080371E-01  3.793574476260E-01
     22 F   8 O    -1.779242181566E-01 -3.043122919629E-01 -3.793574476260E-01
     23 T   8 O     4.507431728720E-01  2.010390047444E-01 -4.320209796332E-01
     24 F   8 O    -4.507431728720E-01 -2.989609952556E-01  4.320209796332E-01
     25 T   8 O    -3.144514238828E-01  2.106615168981E-01  3.959117715705E-01
     26 F   8 O     3.144514238828E-01 -2.893384831019E-01 -3.959117715705E-01
     27 T   8 O    -3.870730917199E-02  2.012655843675E-01 -4.301602917523E-01
     28 F   8 O     3.870730917199E-02 -2.987344156325E-01  4.301602917523E-01
     29 T   8 O    -1.378380617359E-01  1.884715687994E-01  2.949851085812E-01
     30 F   8 O     1.378380617359E-01 -3.115284312006E-01 -2.949851085812E-01
     31 T   8 O    -3.621640119071E-01 -3.115350644885E-01  2.050031482636E-01
     32 F   8 O     3.621640119071E-01  1.884649355115E-01 -2.050031482636E-01
     33 T   8 O    -1.855678869093E-01 -2.893035113088E-01  1.040733505458E-01
     34 F   8 O     1.855678869093E-01  2.106964886912E-01 -1.040733505458E-01
     35 T   8 O    -4.613036098857E-01 -2.987441224230E-01 -6.984972562310E-02
     36 F   8 O     4.613036098857E-01  2.012558775770E-01  6.984972562310E-02

 T = ATOM BELONGING TO THE ASYMMETRIC UNIT
 *******************************************************************************
 * GEOMETRY EDITING - INPUT COORDINATES ARE GIVEN IN ANGSTROM         
 *******************************************************************************

 GEOMETRY NOW FULLY CONSISTENT WITH THE GROUP

 GCALCO - MAX INDICES DIRECT LATTICE VECTOR    10    27    10
 NO.OF VECTORS CREATED 6999 STARS 1820 RMAX   166.83849 BOHR

 GEOMETRY FOR WAVE FUNCTION - DIMENSIONALITY OF THE SYSTEM    3
 (NON PERIODIC DIRECTION: LATTICE PARAMETER FORMALLY SET TO 500)
 *******************************************************************************
 LATTICE PARAMETERS (ANGSTROMS AND DEGREES) - BOHR = 0.5291772083 ANGSTROM
 PRIMITIVE CELL - CENTRING CODE 1/0 VOLUME=   412.329882 - DENSITY  6.021 g/cm^3
         A              B              C           ALPHA      BETA       GAMMA 
    11.07593682     3.87761445    11.08776483    90.000000 120.017114  90.000000
 *******************************************************************************
 ATOMS IN THE ASYMMETRIC UNIT   18 - ATOMS IN THE UNIT CELL:   36
     ATOM                 X/A                 Y/B                 Z/C    
 *******************************************************************************
      1 T  12 MG   -4.968107915329E-01  4.381218596425E-01  2.516801317287E-01
      2 F  12 MG    4.968107915329E-01 -6.187814035751E-02 -2.516801317287E-01
      3 T  12 MG   -3.176130604508E-03 -6.199258170850E-02  2.483292086620E-01
      4 F  12 MG    3.176130604508E-03  4.380074182915E-01 -2.483292086620E-01
      5 T  53 I     1.663300734983E-01  4.289931017082E-01  8.721697865947E-02
      6 F  53 I    -1.663300734983E-01 -7.100689829177E-02 -8.721697865947E-02
      7 T  53 I     3.336689416397E-01 -7.098720404470E-02  4.127716159024E-01
      8 F  53 I    -3.336689416397E-01  4.290127959553E-01 -4.127716159024E-01
      9 T  53 I    -1.668079193743E-01 -7.079231812754E-02  4.212005824218E-01
     10 F  53 I     1.668079193743E-01  4.292076818725E-01 -4.212005824218E-01
     11 T  53 I    -3.332017490796E-01  4.291839903505E-01  7.878919744672E-02
     12 F  53 I     3.332017490796E-01 -7.081600964955E-02 -7.878919744672E-02
     13 T   8 O     3.220732834965E-01 -3.043023436466E-01  1.206431804761E-01
     14 F   8 O    -3.220732834965E-01  1.956976563534E-01 -1.206431804761E-01
     15 T   8 O     4.925571715942E-02 -2.990001612903E-01 -6.799084883917E-02
     16 F   8 O    -4.925571715942E-02  2.009998387097E-01  6.799084883917E-02
     17 T   8 O     1.372520886181E-01 -2.848667019447E-01  2.056804221940E-01
     18 F   8 O    -1.372520886181E-01  2.151332980553E-01 -2.056804221940E-01
     19 T   8 O     3.627606176749E-01  2.150996744353E-01  2.943055630121E-01
     20 F   8 O    -3.627606176749E-01 -2.849003255647E-01 -2.943055630121E-01
     21 T   8 O     1.779242181566E-01  1.956877080371E-01  3.793574476260E-01
     22 F   8 O    -1.779242181566E-01 -3.043122919629E-01 -3.793574476260E-01
     23 T   8 O     4.507431728720E-01  2.010390047444E-01 -4.320209796332E-01
     24 F   8 O    -4.507431728720E-01 -2.989609952556E-01  4.320209796332E-01
     25 T   8 O    -3.144514238828E-01  2.106615168981E-01  3.959117715705E-01
     26 F   8 O     3.144514238828E-01 -2.893384831019E-01 -3.959117715705E-01
     27 T   8 O    -3.870730917199E-02  2.012655843675E-01 -4.301602917523E-01
     28 F   8 O     3.870730917199E-02 -2.987344156325E-01  4.301602917523E-01
     29 T   8 O    -1.378380617359E-01  1.884715687994E-01  2.949851085812E-01
     30 F   8 O     1.378380617359E-01 -3.115284312006E-01 -2.949851085812E-01
     31 T   8 O    -3.621640119071E-01 -3.115350644885E-01  2.050031482636E-01
     32 F   8 O     3.621640119071E-01  1.884649355115E-01 -2.050031482636E-01
     33 T   8 O    -1.855678869093E-01 -2.893035113088E-01  1.040733505458E-01
     34 F   8 O     1.855678869093E-01  2.106964886912E-01 -1.040733505458E-01
     35 T   8 O    -4.613036098857E-01 -2.987441224230E-01 -6.984972562310E-02
     36 F   8 O     4.613036098857E-01  2.012558775770E-01  6.984972562310E-02

 T = ATOM BELONGING TO THE ASYMMETRIC UNIT

 ****    2 SYMMOPS - TRANSLATORS IN FRACTIONAL UNITS
 **** MATRICES AND TRANSLATORS IN THE CRYSTALLOGRAPHIC REFERENCE FRAME
   V INV                    ROTATION MATRICES                   TRANSLATORS
   1   1  1.00  0.00  0.00  0.00  1.00  0.00  0.00  0.00  1.00  0.00  0.00  0.00
   2   2 -1.00  0.00 -0.00  0.00  1.00  0.00 -0.00  0.00 -1.00  0.00  0.50  0.00

 DIRECT LATTICE VECTORS CARTESIAN COMPONENTS (ANGSTROM)
          X                    Y                    Z
   0.110759368087E+02   0.000000000000E+00  -0.490019203000E-03
   0.000000000000E+00   0.387761444765E+01  -0.000000000000E+00
  -0.554632564909E+01   0.000000000000E+00   0.960087500197E+01


 CARTESIAN COORDINATES - PRIMITIVE CELL
 *******************************************************************************
 *      ATOM          X(ANGSTROM)         Y(ANGSTROM)         Z(ANGSTROM)
 *******************************************************************************
    1    12 MG   -6.898544902872E+00  1.698867652781E+00  2.416592932035E+00
    2    12 MG    6.898544902872E+00 -2.399395710440E-01 -2.416592932035E+00
    3    12 MG   -1.412493281292E+00 -2.403833304800E-01  2.384179248067E+00
    4    12 MG    1.412493281292E+00  1.698423893345E+00 -2.384179248067E+00
    5    53 I     1.358527617679E+00  1.663469849126E+00  8.372778052290E-01
    6    53 I    -1.358527617679E+00 -2.753373746990E-01 -8.372778052290E-01
    7    53 I     1.406330312132E+00 -2.752610080020E-01  3.962805184451E+00
    8    53 I    -1.406330312132E+00  1.663546215823E+00 -3.962805184451E+00
    9    53 I    -4.183669567878E+00 -2.745053155540E-01  4.043975881672E+00
   10    53 I     4.183669567878E+00  1.664301908271E+00 -4.043975881672E+00
   11    53 I    -4.127512064024E+00  1.664210041683E+00  7.566085114470E-01
   12    53 I     4.127512064024E+00 -2.745971821420E-01 -7.566085114470E-01
   13     8 O     2.898136969516E+00 -1.179967164178E+00  1.158122273497E+00
   14     8 O    -2.898136969516E+00  7.588400596470E-01 -1.158122273497E+00
   15     8 O     9.226525995450E-01 -1.159407345269E+00 -6.527957772300E-01
   16     8 O    -9.226525995450E-01  7.793998785560E-01  6.527957772300E-01
   17     8 O     3.794248592660E-01 -1.104603239115E+00  1.974644767678E+00
   18     8 O    -3.794248592660E-01  8.342039847100E-01 -1.974644767678E+00
   19     8 O     2.385599185248E+00  8.340736052750E-01  2.825413163195E+00
   20     8 O    -2.385599185248E+00 -1.104733618550E+00 -2.825413163195E+00
   21     8 O    -1.333625449020E-01  7.588014839120E-01  3.642076249440E+00
   22     8 O     1.333625449020E-01 -1.180005739913E+00 -3.642076249440E+00
   23     8 O     7.388531939968E+00  7.795517493380E-01 -4.148000296497E+00
   24     8 O    -7.388531939968E+00 -1.159255474487E+00  4.148000296497E+00
   25     8 O    -5.678699713770E+00  8.168641414880E-01  3.801253517893E+00
   26     8 O     5.678699713770E+00 -1.121943082337E+00 -3.801253517893E+00
   27     8 O     1.957089348942E+00  7.804303377580E-01 -4.129896224600E+00
   28     8 O    -1.957089348942E+00 -1.158376886067E+00  4.129896224600E+00
   29     8 O    -3.162769135444E+00  7.308200781480E-01  2.832182698228E+00
   30     8 O     3.162769135444E+00 -1.207987145677E+00 -2.832182698228E+00
   31     8 O    -5.148319929627E+00 -1.208012867010E+00  1.968387068810E+00
   32     8 O     5.148319929627E+00  7.307943568150E-01 -1.968387068810E+00
   33     8 O    -2.632562882650E+00 -1.121807475207E+00  9.992861614540E-01
   34     8 O     2.632562882650E+00  8.169997486180E-01 -9.992861614540E-01
   35     8 O    -4.721960307914E+00 -1.158414525258E+00 -6.703924370020E-01
   36     8 O     4.721960307914E+00  7.803926985670E-01  6.703924370020E-01
 WARNING **** CRYSTA **** TESTGEOM  DIRECTIVE - GEOMETRY EDITING COMPLETE
 TTTTTTTTTTTTTTTTTTTTTTTTTTTTTT END         TELAPSE        0.02 TCPU        0.02
 EEEEEEEEEE TERMINATION  DATE 31 07 2025 TIME 12:14:58.5
