
         
 *******************************************************************************
 *                                                                             *
 *                               CRYSTAL23                                     *
 *                      public : 1.0.1 - October 2022                          *
 *                       HTTP://WWW.CRYSTAL.UNITO.IT                           *
 *                                                                             *
 *                              MAIN AUTHORS                                   *
 *                                                                             *
 *  R. DOVESI(1,11), V.R. SAUNDERS(2), C. ROETTI(1,11), R. ORLANDO(1,11),      *
 *  C.M. ZICOVICH-WILSON(1,3), F. PASCALE(4), B. CIVALLERI(1,11),              *
 *  K. DOLL(5), N.M. HARRISON(6), I.J. BUSH(7), Ph. D'ARCO(8),                 *
 *  M. LLUNELL(9), M. CAUSA'(10), Y. NOEL(8), L. MASCHIO(1,11), A. ERBA(1,11)  *
 *  M. RE'RAT(14), S. CASASSA(1,11), B.G. SEARLE(2), J.K. DESMARAIS(1)         *
 *                                                                             *
 *        CONTRIBUTIONS TO THE CODE HAVE ALSO BEEN GIVEN BY                    *
 *                                                                             *
 *  M. FERRABONE(1,11), M. DE LA PIERRE(1,11), M. FERRERO(1,11),               *
 *  J. BAIMA(1,11), E. ALBANESE(1,11), M.F. PEINTINGER(12), R. BAST(13),       *
 *  B. KIRTMAN(15), V. LACIVITA(1,11), R. DEMICHELIS(1,16)                     *
 *  G. BRANDEBURG(17), S. SALUSTRO(1,11), G. SANSONE(1,11)                     *
 *  M.T. RUGGIERO(18), L.E. DAGA(1), L. DONA'(1), A. COSSARD(1)                *
 *                                                                             *
 * (1) THEORETICAL CHEMISTRY GROUP - UNIVERSITA' DI TORINO - TORINO (ITALY)    *
 * (2) SCIENTIFIC COMPUTING DEPARTMENT - STFC DARESBURY (UK)                   *
 * (3) UNIVERSIDAD AUTONOMA DEL ESTADO DE MORELOS - CUERNAVACA (MEXICO)        *
 * (4) UNIVERSITE' DE LORRAINE - NANCY (FRANCE)                                *
 * (5) UNIVERSITAET STUTTGART- STUTTGART (GERMANY)                             *
 * (6) IMPERIAL COLLEGE - LONDON (UK)                                          *
 * (7) SCIENTIFIC COMPUTING DEPARTMENT - STFC RAL (UK)                         *
 * (8) UPMC - SORBONNE UNIVERSITES - PARIS (FRANCE)                            *
 * (9) UNIVERSIDAD DE BARCELONA - BARCELONA (SPAIN)                            *
 *(10) UNIVERSITA' DI NAPOLI "FEDERICO II" - NAPOLI (ITALY)                    *
 *(11) NIS - NANOSTRUCTURED INTERFACES AND SURFACES - TORINO (ITALY)           *
 *(12) MPI FUER CHEMISCHE ENERGIEKONVERSION - MUELHEIM AN DER RUHR (GERMANY)   *
 *(13) UNIVERSITY OF TROMSO - TROMSO (NORWAY)                                  *
 *(14) UNIVERSITE' DE PAU ET DES PAYS DE L'ADOUR - PAU (FRANCE)                *
 *(15) UNIVERSITY OF CALIFORNIA SANTA BARBARA - SANTA BARBARA (USA)            *
 *(16) CURTIN UNIVERSITY - PERTH (AUSTRALIA)                                   *
 *(17) UNIVERSITY COLLEGE LONDON - LONDON (UK)                                 *
 *(18) UNIVERSITY OF VERMONT - BURLINGTON (USA)                                *
 *                                                                             *
 *******************************************************************************
 EEEEEEEEEE STARTING  DATE 31 07 2025 TIME 12:14:58.5
 Check                                                                           
 filename=fort.34                        0           0

 GEOMETRY INPUT FROM EXTERNAL FILE (FORTRAN UNIT 34)
 3D - CRYSTAL 

 *******************************************************************************
 LATTICE PARAMETERS  (ANGSTROMS AND DEGREES) - PRIMITIVE CELL
       A          B          C        ALPHA      BETA     GAMMA        VOLUME
   11.07105    3.82490   11.07972    90.00000 120.02475  90.00000    406.218668
 INFORMATION **** CHKGRP **** SPGR WITH NO INVERSION

 NUMBER OF IRREDUCIBLE ATOMS IN THE CELL:   18

 CARTESIAN COORDINATES (ANGSTROM) - IRREDUCIBLE ATOMS AND SYMMETRY RELATED

 AT.IRR.  AT  AT.N.          X                   Y                   Z
     1     1    12   -6.897665689177E+00  1.681748372228E+00  2.412552837796E+00
     1     2    12    6.897665689177E+00 -2.307022976620E-01 -2.412552837796E+00
     3     3    12   -1.409539051072E+00 -2.307283644570E-01  2.384805794125E+00
     3     4    12    1.409539051072E+00  1.681722305433E+00 -2.384805794125E+00
     5     5    53    1.359316313437E+00  1.620731906044E+00  8.332754860570E-01
     5     6    53   -1.359316313437E+00 -2.917187638460E-01 -8.332754860570E-01
     7     7    53    1.404659504542E+00 -2.917110279680E-01  3.962881381436E+00
     7     8    53   -1.404659504542E+00  1.620739641922E+00 -3.962881381436E+00
     9     9    53   -4.179606742637E+00 -2.908128955930E-01  4.036377512805E+00
     9    10    53    4.179606742637E+00  1.621637774297E+00 -4.036377512805E+00
    11    11    53   -4.127486035442E+00  1.621642821075E+00  7.608299216580E-01
    11    12    53    4.127486035442E+00 -2.908078488150E-01 -7.608299216580E-01
    13    13     8    2.893673620788E+00 -1.155835262916E+00  1.147505455668E+00
    13    14     8   -2.893673620788E+00  7.566154069740E-01 -1.147505455668E+00
    15    15     8    9.160698933330E-01 -1.137829936419E+00 -6.494029324600E-01
    15    16     8   -9.160698933330E-01  7.746207334710E-01  6.494029324600E-01
    17    17     8    3.846204596520E-01 -1.088778142757E+00  1.972626544485E+00
    17    18     8   -3.846204596520E-01  8.236725271330E-01 -1.972626544485E+00
    19    19     8    2.379423379619E+00  8.236471336060E-01  2.823573431051E+00
    19    20     8   -2.379423379619E+00 -1.088803536284E+00 -2.823573431051E+00
    21    21     8   -1.296496162690E-01  7.566333967600E-01  3.648623465605E+00
    21    22     8    1.296496162690E-01 -1.155817273130E+00 -3.648623465605E+00
    23    23     8    7.390985277729E+00  7.746780946590E-01 -4.147888071535E+00
    23    24     8   -7.390985277729E+00 -1.137772575231E+00  4.147888071535E+00
    25    25     8   -5.672816475677E+00  8.068505794410E-01  3.794024416916E+00
    25    26     8    5.672816475677E+00 -1.105600090449E+00 -3.794024416916E+00
    27    27     8    1.951754676867E+00  7.767986974310E-01 -4.133970305601E+00
    27    28     8   -1.951754676867E+00 -1.135651972459E+00  4.133970305601E+00
    29    29     8   -3.163102069423E+00  7.320811104810E-01  2.830842570270E+00
    29    30     8    3.163102069423E+00 -1.180369559409E+00 -2.830842570270E+00
    31    31     8   -5.143957212094E+00 -1.180361140651E+00  1.966398715295E+00
    31    32     8    5.143957212094E+00  7.320895292390E-01 -1.966398715295E+00
    33    33     8   -2.634198400248E+00 -1.105678624873E+00  1.003207399940E+00
    33    34     8    2.634198400248E+00  8.067720450170E-01 -1.003207399940E+00
    35    35     8   -4.715708459126E+00 -1.135602723424E+00 -6.622445302210E-01
    35    36     8    4.715708459126E+00  7.768479464660E-01  6.622445302210E-01

 SPACE  GROUP  N.                     :    4
 NUMBER OF SYMMETRY OPERATORS         :    2
 *******************************************************************************
 LATTICE PARAMETERS (ANGSTROMS AND DEGREES) - BOHR = 0.5291772083 ANGSTROM
 PRIMITIVE CELL - CENTRING CODE 1/0 VOLUME=   406.218668 - DENSITY  6.111 g/cm^3
         A              B              C           ALPHA      BETA       GAMMA 
    11.07104884     3.82490134    11.07971514    90.000000 120.024747  90.000000
 *******************************************************************************
 ATOMS IN THE ASYMMETRIC UNIT   18 - ATOMS IN THE UNIT CELL:   36
     ATOM                 X/A                 Y/B                 Z/C    
 *******************************************************************************
      1 T  12 MG   -4.971515779360E-01  4.396841180549E-01  2.514254456930E-01
      2 F  12 MG    4.971515779360E-01 -6.031588194515E-02 -2.514254456930E-01
      3 T  12 MG   -2.854092274252E-03 -6.032269696930E-02  2.485867712675E-01
      4 F  12 MG    2.854092274252E-03  4.396773030307E-01 -2.485867712675E-01
      5 T  53 I     1.662790641840E-01  4.237316892825E-01  8.687690030120E-02
      6 F  53 I    -1.662790641840E-01 -7.626831071747E-02 -8.687690030120E-02
      7 T  53 I     3.337187582000E-01 -7.626628821354E-02  4.131185215353E-01
      8 F  53 I    -3.337187582000E-01  4.237337117865E-01 -4.131185215353E-01
      9 T  53 I    -1.668752881214E-01 -7.603147630724E-02  4.207253004914E-01
     10 F  53 I     1.668752881214E-01  4.239685236928E-01 -4.207253004914E-01
     11 T  53 I    -3.331281599438E-01  4.239698431459E-01  7.927115620885E-02
     12 F  53 I     3.331281599438E-01 -7.603015685412E-02 -7.927115620885E-02
     13 T   8 O     3.212790919251E-01 -3.021869481691E-01  1.196483770709E-01
     14 F   8 O    -3.212790919251E-01  1.978130518309E-01 -1.196483770709E-01
     15 T   8 O     4.885478057321E-02 -2.974795518476E-01 -6.768708021503E-02
     16 F   8 O    -4.885478057321E-02  2.025204481524E-01  6.768708021503E-02
     17 T   8 O     1.377004752702E-01 -2.846552227200E-01  2.056373299428E-01
     18 F   8 O    -1.377004752702E-01  2.153447772800E-01 -2.056373299428E-01
     19 T   8 O     3.623057414591E-01  2.153381382782E-01  2.943625862950E-01
     20 F   8 O    -3.623057414591E-01 -2.846618617218E-01 -2.943625862950E-01
     21 T   8 O     1.787216245776E-01  1.978177551642E-01  3.803441320251E-01
     22 F   8 O    -1.787216245776E-01 -3.021822448358E-01 -3.803441320251E-01
     23 T   8 O     4.511409086756E-01  2.025354449282E-01 -4.323180884370E-01
     24 F   8 O    -4.511409086756E-01 -2.974645550718E-01  4.323180884370E-01
     25 T   8 O    -3.144069549231E-01  2.109467690185E-01  3.954469261989E-01
     26 F   8 O     3.144069549231E-01 -2.890532309815E-01 -3.954469261989E-01
     27 T   8 O    -3.946156214136E-02  2.030898651822E-01 -4.309205476801E-01
     28 F   8 O     3.946156214136E-02 -2.969101348178E-01  4.309205476801E-01
     29 T   8 O    -1.379744258250E-01  1.913986912204E-01  2.950660385750E-01
     30 F   8 O     1.379744258250E-01 -3.086013087796E-01 -2.950660385750E-01
     31 T   8 O    -3.620242296824E-01 -3.085991077404E-01  2.049339472120E-01
     32 F   8 O     3.620242296824E-01  1.914008922596E-01 -2.049339472120E-01
     33 T   8 O    -1.855881836024E-01 -2.890737633867E-01  1.045520729715E-01
     34 F   8 O     1.855881836024E-01  2.109262366133E-01 -1.045520729715E-01
     35 T   8 O    -4.605372952897E-01 -2.968972589210E-01 -6.908091676400E-02
     36 F   8 O     4.605372952897E-01  2.031027410790E-01  6.908091676400E-02

 T = ATOM BELONGING TO THE ASYMMETRIC UNIT
 *******************************************************************************
 * GEOMETRY EDITING - INPUT COORDINATES ARE GIVEN IN ANGSTROM         
 *******************************************************************************

 GEOMETRY NOW FULLY CONSISTENT WITH THE GROUP

 GCALCO - MAX INDICES DIRECT LATTICE VECTOR    11    27    10
 NO.OF VECTORS CREATED 6999 STARS 1821 RMAX   166.27340 BOHR

 GEOMETRY FOR WAVE FUNCTION - DIMENSIONALITY OF THE SYSTEM    3
 (NON PERIODIC DIRECTION: LATTICE PARAMETER FORMALLY SET TO 500)
 *******************************************************************************
 LATTICE PARAMETERS (ANGSTROMS AND DEGREES) - BOHR = 0.5291772083 ANGSTROM
 PRIMITIVE CELL - CENTRING CODE 1/0 VOLUME=   406.218668 - DENSITY  6.111 g/cm^3
         A              B              C           ALPHA      BETA       GAMMA 
    11.07104884     3.82490134    11.07971514    90.000000 120.024747  90.000000
 *******************************************************************************
 ATOMS IN THE ASYMMETRIC UNIT   18 - ATOMS IN THE UNIT CELL:   36
     ATOM                 X/A                 Y/B                 Z/C    
 *******************************************************************************
      1 T  12 MG   -4.971515779360E-01  4.396841180549E-01  2.514254456930E-01
      2 F  12 MG    4.971515779360E-01 -6.031588194515E-02 -2.514254456930E-01
      3 T  12 MG   -2.854092274252E-03 -6.032269696930E-02  2.485867712675E-01
      4 F  12 MG    2.854092274252E-03  4.396773030307E-01 -2.485867712675E-01
      5 T  53 I     1.662790641840E-01  4.237316892825E-01  8.687690030120E-02
      6 F  53 I    -1.662790641840E-01 -7.626831071747E-02 -8.687690030120E-02
      7 T  53 I     3.337187582000E-01 -7.626628821354E-02  4.131185215353E-01
      8 F  53 I    -3.337187582000E-01  4.237337117865E-01 -4.131185215353E-01
      9 T  53 I    -1.668752881214E-01 -7.603147630724E-02  4.207253004914E-01
     10 F  53 I     1.668752881214E-01  4.239685236928E-01 -4.207253004914E-01
     11 T  53 I    -3.331281599438E-01  4.239698431459E-01  7.927115620885E-02
     12 F  53 I     3.331281599438E-01 -7.603015685412E-02 -7.927115620885E-02
     13 T   8 O     3.212790919251E-01 -3.021869481691E-01  1.196483770709E-01
     14 F   8 O    -3.212790919251E-01  1.978130518309E-01 -1.196483770709E-01
     15 T   8 O     4.885478057321E-02 -2.974795518476E-01 -6.768708021503E-02
     16 F   8 O    -4.885478057321E-02  2.025204481524E-01  6.768708021503E-02
     17 T   8 O     1.377004752702E-01 -2.846552227200E-01  2.056373299428E-01
     18 F   8 O    -1.377004752702E-01  2.153447772800E-01 -2.056373299428E-01
     19 T   8 O     3.623057414591E-01  2.153381382782E-01  2.943625862950E-01
     20 F   8 O    -3.623057414591E-01 -2.846618617218E-01 -2.943625862950E-01
     21 T   8 O     1.787216245776E-01  1.978177551642E-01  3.803441320251E-01
     22 F   8 O    -1.787216245776E-01 -3.021822448358E-01 -3.803441320251E-01
     23 T   8 O     4.511409086756E-01  2.025354449282E-01 -4.323180884370E-01
     24 F   8 O    -4.511409086756E-01 -2.974645550718E-01  4.323180884370E-01
     25 T   8 O    -3.144069549231E-01  2.109467690185E-01  3.954469261989E-01
     26 F   8 O     3.144069549231E-01 -2.890532309815E-01 -3.954469261989E-01
     27 T   8 O    -3.946156214136E-02  2.030898651822E-01 -4.309205476801E-01
     28 F   8 O     3.946156214136E-02 -2.969101348178E-01  4.309205476801E-01
     29 T   8 O    -1.379744258250E-01  1.913986912204E-01  2.950660385750E-01
     30 F   8 O     1.379744258250E-01 -3.086013087796E-01 -2.950660385750E-01
     31 T   8 O    -3.620242296824E-01 -3.085991077404E-01  2.049339472120E-01
     32 F   8 O     3.620242296824E-01  1.914008922596E-01 -2.049339472120E-01
     33 T   8 O    -1.855881836024E-01 -2.890737633867E-01  1.045520729715E-01
     34 F   8 O     1.855881836024E-01  2.109262366133E-01 -1.045520729715E-01
     35 T   8 O    -4.605372952897E-01 -2.968972589210E-01 -6.908091676400E-02
     36 F   8 O     4.605372952897E-01  2.031027410790E-01  6.908091676400E-02

 T = ATOM BELONGING TO THE ASYMMETRIC UNIT

 ****    2 SYMMOPS - TRANSLATORS IN FRACTIONAL UNITS
 **** MATRICES AND TRANSLATORS IN THE CRYSTALLOGRAPHIC REFERENCE FRAME
   V INV                    ROTATION MATRICES                   TRANSLATORS
   1   1  1.00  0.00  0.00  0.00  1.00  0.00  0.00  0.00  1.00  0.00  0.00  0.00
   2   2 -1.00  0.00  0.00  0.00  1.00  0.00 -0.00  0.00 -1.00  0.00  0.50  0.00

 DIRECT LATTICE VECTORS CARTESIAN COMPONENTS (ANGSTROM)
          X                    Y                    Z
   0.110710487945E+02   0.000000000000E+00  -0.104063774300E-02
   0.000000000000E+00   0.382490133978E+01  -0.000000000000E+00
  -0.554309969599E+01   0.000000000000E+00   0.959344220889E+01


 CARTESIAN COORDINATES - PRIMITIVE CELL
 *******************************************************************************
 *      ATOM          X(ANGSTROM)         Y(ANGSTROM)         Z(ANGSTROM)
 *******************************************************************************
    1    12 MG   -6.897665689177E+00  1.681748372228E+00  2.412552837796E+00
    2    12 MG    6.897665689177E+00 -2.307022976620E-01 -2.412552837796E+00
    3    12 MG   -1.409539051072E+00 -2.307283644570E-01  2.384805794125E+00
    4    12 MG    1.409539051072E+00  1.681722305433E+00 -2.384805794125E+00
    5    53 I     1.359316313437E+00  1.620731906044E+00  8.332754860570E-01
    6    53 I    -1.359316313437E+00 -2.917187638460E-01 -8.332754860570E-01
    7    53 I     1.404659504542E+00 -2.917110279680E-01  3.962881381436E+00
    8    53 I    -1.404659504542E+00  1.620739641922E+00 -3.962881381436E+00
    9    53 I    -4.179606742637E+00 -2.908128955930E-01  4.036377512805E+00
   10    53 I     4.179606742637E+00  1.621637774297E+00 -4.036377512805E+00
   11    53 I    -4.127486035442E+00  1.621642821075E+00  7.608299216580E-01
   12    53 I     4.127486035442E+00 -2.908078488150E-01 -7.608299216580E-01
   13     8 O     2.893673620788E+00 -1.155835262916E+00  1.147505455668E+00
   14     8 O    -2.893673620788E+00  7.566154069740E-01 -1.147505455668E+00
   15     8 O     9.160698933330E-01 -1.137829936419E+00 -6.494029324600E-01
   16     8 O    -9.160698933330E-01  7.746207334710E-01  6.494029324600E-01
   17     8 O     3.846204596520E-01 -1.088778142757E+00  1.972626544485E+00
   18     8 O    -3.846204596520E-01  8.236725271330E-01 -1.972626544485E+00
   19     8 O     2.379423379619E+00  8.236471336060E-01  2.823573431051E+00
   20     8 O    -2.379423379619E+00 -1.088803536284E+00 -2.823573431051E+00
   21     8 O    -1.296496162690E-01  7.566333967600E-01  3.648623465605E+00
   22     8 O     1.296496162690E-01 -1.155817273130E+00 -3.648623465605E+00
   23     8 O     7.390985277729E+00  7.746780946590E-01 -4.147888071535E+00
   24     8 O    -7.390985277729E+00 -1.137772575231E+00  4.147888071535E+00
   25     8 O    -5.672816475677E+00  8.068505794410E-01  3.794024416916E+00
   26     8 O     5.672816475677E+00 -1.105600090449E+00 -3.794024416916E+00
   27     8 O     1.951754676867E+00  7.767986974310E-01 -4.133970305601E+00
   28     8 O    -1.951754676867E+00 -1.135651972459E+00  4.133970305601E+00
   29     8 O    -3.163102069423E+00  7.320811104810E-01  2.830842570270E+00
   30     8 O     3.163102069423E+00 -1.180369559409E+00 -2.830842570270E+00
   31     8 O    -5.143957212094E+00 -1.180361140651E+00  1.966398715295E+00
   32     8 O     5.143957212094E+00  7.320895292390E-01 -1.966398715295E+00
   33     8 O    -2.634198400248E+00 -1.105678624873E+00  1.003207399940E+00
   34     8 O     2.634198400248E+00  8.067720450170E-01 -1.003207399940E+00
   35     8 O    -4.715708459126E+00 -1.135602723424E+00 -6.622445302210E-01
   36     8 O     4.715708459126E+00  7.768479464660E-01  6.622445302210E-01
 WARNING **** CRYSTA **** TESTGEOM  DIRECTIVE - GEOMETRY EDITING COMPLETE
 TTTTTTTTTTTTTTTTTTTTTTTTTTTTTT END         TELAPSE        0.02 TCPU        0.02
 EEEEEEEEEE TERMINATION  DATE 31 07 2025 TIME 12:14:58.5
