
         
 *******************************************************************************
 *                                                                             *
 *                               CRYSTAL23                                     *
 *                      public : 1.0.1 - October 2022                          *
 *                       HTTP://WWW.CRYSTAL.UNITO.IT                           *
 *                                                                             *
 *                              MAIN AUTHORS                                   *
 *                                                                             *
 *  R. DOVESI(1,11), V.R. SAUNDERS(2), C. ROETTI(1,11), R. ORLANDO(1,11),      *
 *  C.M. ZICOVICH-WILSON(1,3), F. PASCALE(4), B. CIVALLERI(1,11),              *
 *  K. DOLL(5), N.M. HARRISON(6), I.J. BUSH(7), Ph. D'ARCO(8),                 *
 *  M. LLUNELL(9), M. CAUSA'(10), Y. NOEL(8), L. MASCHIO(1,11), A. ERBA(1,11)  *
 *  M. RE'RAT(14), S. CASASSA(1,11), B.G. SEARLE(2), J.K. DESMARAIS(1)         *
 *                                                                             *
 *        CONTRIBUTIONS TO THE CODE HAVE ALSO BEEN GIVEN BY                    *
 *                                                                             *
 *  M. FERRABONE(1,11), M. DE LA PIERRE(1,11), M. FERRERO(1,11),               *
 *  J. BAIMA(1,11), E. ALBANESE(1,11), M.F. PEINTINGER(12), R. BAST(13),       *
 *  B. KIRTMAN(15), V. LACIVITA(1,11), R. DEMICHELIS(1,16)                     *
 *  G. BRANDEBURG(17), S. SALUSTRO(1,11), G. SANSONE(1,11)                     *
 *  M.T. RUGGIERO(18), L.E. DAGA(1), L. DONA'(1), A. COSSARD(1)                *
 *                                                                             *
 * (1) THEORETICAL CHEMISTRY GROUP - UNIVERSITA' DI TORINO - TORINO (ITALY)    *
 * (2) SCIENTIFIC COMPUTING DEPARTMENT - STFC DARESBURY (UK)                   *
 * (3) UNIVERSIDAD AUTONOMA DEL ESTADO DE MORELOS - CUERNAVACA (MEXICO)        *
 * (4) UNIVERSITE' DE LORRAINE - NANCY (FRANCE)                                *
 * (5) UNIVERSITAET STUTTGART- STUTTGART (GERMANY)                             *
 * (6) IMPERIAL COLLEGE - LONDON (UK)                                          *
 * (7) SCIENTIFIC COMPUTING DEPARTMENT - STFC RAL (UK)                         *
 * (8) UPMC - SORBONNE UNIVERSITES - PARIS (FRANCE)                            *
 * (9) UNIVERSIDAD DE BARCELONA - BARCELONA (SPAIN)                            *
 *(10) UNIVERSITA' DI NAPOLI "FEDERICO II" - NAPOLI (ITALY)                    *
 *(11) NIS - NANOSTRUCTURED INTERFACES AND SURFACES - TORINO (ITALY)           *
 *(12) MPI FUER CHEMISCHE ENERGIEKONVERSION - MUELHEIM AN DER RUHR (GERMANY)   *
 *(13) UNIVERSITY OF TROMSO - TROMSO (NORWAY)                                  *
 *(14) UNIVERSITE' DE PAU ET DES PAYS DE L'ADOUR - PAU (FRANCE)                *
 *(15) UNIVERSITY OF CALIFORNIA SANTA BARBARA - SANTA BARBARA (USA)            *
 *(16) CURTIN UNIVERSITY - PERTH (AUSTRALIA)                                   *
 *(17) UNIVERSITY COLLEGE LONDON - LONDON (UK)                                 *
 *(18) UNIVERSITY OF VERMONT - BURLINGTON (USA)                                *
 *                                                                             *
 *******************************************************************************
 EEEEEEEEEE STARTING  DATE 31 07 2025 TIME 12:14:58.5
 Check                                                                           
 filename=fort.34                        0           0

 GEOMETRY INPUT FROM EXTERNAL FILE (FORTRAN UNIT 34)
 3D - CRYSTAL 

 *******************************************************************************
 LATTICE PARAMETERS  (ANGSTROMS AND DEGREES) - PRIMITIVE CELL
       A          B          C        ALPHA      BETA     GAMMA        VOLUME
   11.06331    3.77955   11.06930    90.00000 120.03220  90.00000    400.713883
 INFORMATION **** CHKGRP **** SPGR WITH NO INVERSION

 NUMBER OF IRREDUCIBLE ATOMS IN THE CELL:   18

 CARTESIAN COORDINATES (ANGSTROM) - IRREDUCIBLE ATOMS AND SYMMETRY RELATED

 AT.IRR.  AT  AT.N.          X                   Y                   Z
     1     1    12   -6.894905081300E+00  1.667324436887E+00  2.408505629758E+00
     1     2    12    6.894905081300E+00 -2.224490106230E-01 -2.408505629758E+00
     3     3    12   -1.406743931256E+00 -2.223393757920E-01  2.384608295504E+00
     3     4    12    1.406743931256E+00  1.667434071718E+00 -2.384608295504E+00
     5     5    53    1.359582472473E+00  1.583221669383E+00  8.296066683540E-01
     5     6    53   -1.359582472473E+00 -3.065517781270E-01 -8.296066683540E-01
     7     7    53    1.402567256120E+00 -3.066179319720E-01  3.961459047338E+00
     7     8    53   -1.402567256120E+00  1.583155515537E+00 -3.961459047338E+00
     9     9    53   -4.175122366864E+00 -3.057933611500E-01  4.028825896678E+00
     9    10    53    4.175122366864E+00  1.583980086361E+00 -4.028825896678E+00
    11    11    53   -4.126059278915E+00  1.584110080691E+00  7.638388946730E-01
    11    12    53    4.126059278915E+00 -3.056633668190E-01 -7.638388946730E-01
    13    13     8    2.889004623688E+00 -1.134956276290E+00  1.138168129409E+00
    13    14     8   -2.889004623688E+00  7.548171712200E-01 -1.138168129409E+00
    15    15     8    9.104183243590E-01 -1.118840622897E+00 -6.462519198140E-01
    15    16     8   -9.104183243590E-01  7.709328246130E-01  6.462519198140E-01
    17    17     8    3.888844275440E-01 -1.074673313749E+00  1.970301848414E+00
    17    18     8   -3.888844275440E-01  8.151001337610E-01 -1.970301848414E+00
    19    19     8    2.373543800499E+00  8.148205842690E-01  2.820826944243E+00
    19    20     8   -2.373543800499E+00 -1.074952863241E+00 -2.820826944243E+00
    21    21     8   -1.265365509020E-01  7.550669747260E-01  3.652729929464E+00
    21    22     8    1.265365509020E-01 -1.134706472784E+00 -3.652729929464E+00
    23    23     8    7.390610636197E+00  7.709522356750E-01 -4.146508998636E+00
    23    24     8   -7.390610636197E+00 -1.118821211835E+00  4.146508998636E+00
    25    25     8   -5.665841032124E+00  7.992989205950E-01  3.787023646624E+00
    25    26     8    5.665841032124E+00 -1.090474526915E+00 -3.787023646624E+00
    27    27     8    1.947095187063E+00  7.732867726540E-01 -4.135543186328E+00
    27    28     8   -1.947095187063E+00 -1.116486674856E+00  4.135543186328E+00
    29    29     8   -3.162850822651E+00  7.330104872850E-01  2.828802314827E+00
    29    30     8    3.162850822651E+00 -1.156762960225E+00 -2.828802314827E+00
    31    31     8   -5.138181732526E+00 -1.156700462525E+00  1.964011189280E+00
    31    32     8    5.138181732526E+00  7.330729849850E-01 -1.964011189280E+00
    33    33     8   -2.634968318677E+00 -1.090693462086E+00  1.005498861478E+00
    33    34     8    2.634968318677E+00  7.990799854240E-01 -1.005498861478E+00
    35    35     8   -4.709423921307E+00 -1.116451610977E+00 -6.556858075160E-01
    35    36     8    4.709423921307E+00  7.733218365330E-01  6.556858075160E-01

 SPACE  GROUP  N.                     :    4
 NUMBER OF SYMMETRY OPERATORS         :    2
 *******************************************************************************
 LATTICE PARAMETERS (ANGSTROMS AND DEGREES) - BOHR = 0.5291772083 ANGSTROM
 PRIMITIVE CELL - CENTRING CODE 1/0 VOLUME=   400.713883 - DENSITY  6.195 g/cm^3
         A              B              C           ALPHA      BETA       GAMMA 
    11.06330959     3.77954690    11.06929529    90.000000 120.032203  90.000000
 *******************************************************************************
 ATOMS IN THE ASYMMETRIC UNIT   18 - ATOMS IN THE UNIT CELL:   36
     ATOM                 X/A                 Y/B                 Z/C    
 *******************************************************************************
      1 T  12 MG   -4.974433346529E-01  4.411440003784E-01  2.512339519672E-01
      2 F  12 MG    4.974433346529E-01 -5.885599962157E-02 -2.512339519672E-01
      3 T  12 MG   -2.586287855189E-03 -5.882699222093E-02  2.488138477060E-01
      4 F  12 MG    2.586287855189E-03  4.411730077791E-01 -2.488138477060E-01
      5 T  53 I     1.662407055882E-01  4.188919236507E-01  8.658727450682E-02
      6 F  53 I    -1.662407055882E-01 -8.110807634929E-02 -8.658727450682E-02
      7 T  53 I     3.337411437532E-01 -8.112557946457E-02  4.133951098430E-01
      8 F  53 I    -3.337411437532E-01  4.188744205352E-01 -4.133951098430E-01
      9 T  53 I    -1.669379387001E-01 -8.090741288405E-02  4.203500365127E-01
     10 F  53 I     1.669379387001E-01  4.190925871162E-01 -4.203500365127E-01
     11 T  53 I    -3.330728996542E-01  4.191269812734E-01  7.965090252249E-02
     12 F  53 I     3.330728996542E-01 -8.087301872660E-02 -7.965090252249E-02
     13 T   8 O     3.206136281340E-01 -3.002889784978E-01  1.188060140460E-01
     14 F   8 O    -3.206136281340E-01  1.997110215022E-01 -1.188060140460E-01
     15 T   8 O     4.853617925744E-02 -2.960250670183E-01 -6.742386625372E-02
     16 F   8 O    -4.853617925744E-02  2.039749329817E-01  6.742386625372E-02
     17 T   8 O     1.380863012705E-01 -2.843391929242E-01  2.056052442974E-01
     18 F   8 O    -1.380863012705E-01  2.156608070758E-01 -2.056052442974E-01
     19 T   8 O     3.619240184679E-01  2.155868433178E-01  2.943837258362E-01
     20 F   8 O    -3.619240184679E-01 -2.844131566822E-01 -2.943837258362E-01
     21 T   8 O     1.793882393565E-01  1.997771150084E-01  3.811588796646E-01
     22 F   8 O    -1.793882393565E-01 -3.002228849916E-01 -3.811588796646E-01
     23 T   8 O     4.514558351385E-01  2.039800687989E-01 -4.325871056439E-01
     24 F   8 O    -4.514558351385E-01 -2.960199312011E-01  4.325871056439E-01
     25 T   8 O    -3.143245903971E-01  2.114800908141E-01  3.950981067208E-01
     26 F   8 O     3.143245903971E-01 -2.885199091859E-01 -3.950981067208E-01
     27 T   8 O    -4.004100868039E-02  2.045977452146E-01 -4.315158008607E-01
     28 F   8 O     4.004100868039E-02 -2.954022547854E-01  4.315158008607E-01
     29 T   8 O    -1.381249191117E-01  1.939413658952E-01  2.951417344128E-01
     30 F   8 O     1.381249191117E-01 -3.060586341048E-01 -2.951417344128E-01
     31 T   8 O    -3.618646730326E-01 -3.060420983396E-01  2.048747247241E-01
     32 F   8 O     3.618646730326E-01  1.939579016604E-01 -2.048747247241E-01
     33 T   8 O    -1.856600273252E-01 -2.885778354869E-01  1.048879901179E-01
     34 F   8 O     1.856600273252E-01  2.114221645131E-01 -1.048879901179E-01
     35 T   8 O    -4.599655519873E-01 -2.953929775149E-01 -6.848362388384E-02
     36 F   8 O     4.599655519873E-01  2.046070224851E-01  6.848362388384E-02

 T = ATOM BELONGING TO THE ASYMMETRIC UNIT
 *******************************************************************************
 * GEOMETRY EDITING - INPUT COORDINATES ARE GIVEN IN ANGSTROM         
 *******************************************************************************

 GEOMETRY NOW FULLY CONSISTENT WITH THE GROUP

 GCALCO - MAX INDICES DIRECT LATTICE VECTOR    11    27    10
 NO.OF VECTORS CREATED 6999 STARS 1818 RMAX   165.71221 BOHR

 GEOMETRY FOR WAVE FUNCTION - DIMENSIONALITY OF THE SYSTEM    3
 (NON PERIODIC DIRECTION: LATTICE PARAMETER FORMALLY SET TO 500)
 *******************************************************************************
 LATTICE PARAMETERS (ANGSTROMS AND DEGREES) - BOHR = 0.5291772083 ANGSTROM
 PRIMITIVE CELL - CENTRING CODE 1/0 VOLUME=   400.713883 - DENSITY  6.195 g/cm^3
         A              B              C           ALPHA      BETA       GAMMA 
    11.06330959     3.77954690    11.06929529    90.000000 120.032203  90.000000
 *******************************************************************************
 ATOMS IN THE ASYMMETRIC UNIT   18 - ATOMS IN THE UNIT CELL:   36
     ATOM                 X/A                 Y/B                 Z/C    
 *******************************************************************************
      1 T  12 MG   -4.974433346529E-01  4.411440003784E-01  2.512339519672E-01
      2 F  12 MG    4.974433346529E-01 -5.885599962157E-02 -2.512339519672E-01
      3 T  12 MG   -2.586287855189E-03 -5.882699222093E-02  2.488138477060E-01
      4 F  12 MG    2.586287855189E-03  4.411730077791E-01 -2.488138477060E-01
      5 T  53 I     1.662407055882E-01  4.188919236507E-01  8.658727450682E-02
      6 F  53 I    -1.662407055882E-01 -8.110807634929E-02 -8.658727450682E-02
      7 T  53 I     3.337411437532E-01 -8.112557946457E-02  4.133951098430E-01
      8 F  53 I    -3.337411437532E-01  4.188744205354E-01 -4.133951098430E-01
      9 T  53 I    -1.669379387001E-01 -8.090741288405E-02  4.203500365127E-01
     10 F  53 I     1.669379387001E-01  4.190925871160E-01 -4.203500365127E-01
     11 T  53 I    -3.330728996542E-01  4.191269812734E-01  7.965090252249E-02
     12 F  53 I     3.330728996542E-01 -8.087301872660E-02 -7.965090252249E-02
     13 T   8 O     3.206136281340E-01 -3.002889784978E-01  1.188060140460E-01
     14 F   8 O    -3.206136281340E-01  1.997110215022E-01 -1.188060140460E-01
     15 T   8 O     4.853617925744E-02 -2.960250670183E-01 -6.742386625372E-02
     16 F   8 O    -4.853617925744E-02  2.039749329817E-01  6.742386625372E-02
     17 T   8 O     1.380863012705E-01 -2.843391929242E-01  2.056052442974E-01
     18 F   8 O    -1.380863012705E-01  2.156608070758E-01 -2.056052442974E-01
     19 T   8 O     3.619240184679E-01  2.155868433178E-01  2.943837258362E-01
     20 F   8 O    -3.619240184679E-01 -2.844131566822E-01 -2.943837258362E-01
     21 T   8 O     1.793882393565E-01  1.997771150084E-01  3.811588796646E-01
     22 F   8 O    -1.793882393565E-01 -3.002228849916E-01 -3.811588796646E-01
     23 T   8 O     4.514558351385E-01  2.039800687989E-01 -4.325871056439E-01
     24 F   8 O    -4.514558351385E-01 -2.960199312011E-01  4.325871056439E-01
     25 T   8 O    -3.143245903971E-01  2.114800908141E-01  3.950981067208E-01
     26 F   8 O     3.143245903971E-01 -2.885199091859E-01 -3.950981067208E-01
     27 T   8 O    -4.004100868039E-02  2.045977452146E-01 -4.315158008607E-01
     28 F   8 O     4.004100868039E-02 -2.954022547854E-01  4.315158008607E-01
     29 T   8 O    -1.381249191117E-01  1.939413658952E-01  2.951417344128E-01
     30 F   8 O     1.381249191117E-01 -3.060586341048E-01 -2.951417344128E-01
     31 T   8 O    -3.618646730326E-01 -3.060420983396E-01  2.048747247241E-01
     32 F   8 O     3.618646730326E-01  1.939579016604E-01 -2.048747247241E-01
     33 T   8 O    -1.856600273252E-01 -2.885778354869E-01  1.048879901179E-01
     34 F   8 O     1.856600273252E-01  2.114221645131E-01 -1.048879901179E-01
     35 T   8 O    -4.599655519873E-01 -2.953929775149E-01 -6.848362388384E-02
     36 F   8 O     4.599655519873E-01  2.046070224851E-01  6.848362388384E-02

 T = ATOM BELONGING TO THE ASYMMETRIC UNIT

 ****    2 SYMMOPS - TRANSLATORS IN FRACTIONAL UNITS
 **** MATRICES AND TRANSLATORS IN THE CRYSTALLOGRAPHIC REFERENCE FRAME
   V INV                    ROTATION MATRICES                   TRANSLATORS
   1   1  1.00  0.00  0.00  0.00  1.00  0.00  0.00  0.00  1.00  0.00  0.00  0.00
   2   2 -1.00  0.00  0.00  0.00  1.00  0.00  0.00  0.00 -1.00  0.00  0.50  0.00

 DIRECT LATTICE VECTORS CARTESIAN COMPONENTS (ANGSTROM)
          X                    Y                    Z
   0.110633095019E+02   0.000000000000E+00  -0.142125998300E-02
   0.000000000000E+00   0.377954689502E+01  -0.000000000000E+00
  -0.553880357126E+01   0.000000000000E+00   0.958389029269E+01


 CARTESIAN COORDINATES - PRIMITIVE CELL
 *******************************************************************************
 *      ATOM          X(ANGSTROM)         Y(ANGSTROM)         Z(ANGSTROM)
 *******************************************************************************
    1    12 MG   -6.894905081300E+00  1.667324436887E+00  2.408505629758E+00
    2    12 MG    6.894905081300E+00 -2.224490106230E-01 -2.408505629758E+00
    3    12 MG   -1.406743931256E+00 -2.223393757920E-01  2.384608295504E+00
    4    12 MG    1.406743931256E+00  1.667434071718E+00 -2.384608295504E+00
    5    53 I     1.359582472473E+00  1.583221669383E+00  8.296066683540E-01
    6    53 I    -1.359582472473E+00 -3.065517781270E-01 -8.296066683540E-01
    7    53 I     1.402567256120E+00 -3.066179319720E-01  3.961459047338E+00
    8    53 I    -1.402567256120E+00  1.583155515538E+00 -3.961459047338E+00
    9    53 I    -4.175122366864E+00 -3.057933611500E-01  4.028825896678E+00
   10    53 I     4.175122366864E+00  1.583980086360E+00 -4.028825896678E+00
   11    53 I    -4.126059278915E+00  1.584110080691E+00  7.638388946730E-01
   12    53 I     4.126059278915E+00 -3.056633668190E-01 -7.638388946730E-01
   13     8 O     2.889004623688E+00 -1.134956276290E+00  1.138168129409E+00
   14     8 O    -2.889004623688E+00  7.548171712200E-01 -1.138168129409E+00
   15     8 O     9.104183243590E-01 -1.118840622897E+00 -6.462519198140E-01
   16     8 O    -9.104183243590E-01  7.709328246130E-01  6.462519198140E-01
   17     8 O     3.888844275440E-01 -1.074673313749E+00  1.970301848414E+00
   18     8 O    -3.888844275440E-01  8.151001337610E-01 -1.970301848414E+00
   19     8 O     2.373543800499E+00  8.148205842690E-01  2.820826944243E+00
   20     8 O    -2.373543800499E+00 -1.074952863241E+00 -2.820826944243E+00
   21     8 O    -1.265365509020E-01  7.550669747260E-01  3.652729929464E+00
   22     8 O     1.265365509020E-01 -1.134706472784E+00 -3.652729929464E+00
   23     8 O     7.390610636197E+00  7.709522356750E-01 -4.146508998636E+00
   24     8 O    -7.390610636197E+00 -1.118821211835E+00  4.146508998636E+00
   25     8 O    -5.665841032124E+00  7.992989205950E-01  3.787023646624E+00
   26     8 O     5.665841032124E+00 -1.090474526915E+00 -3.787023646624E+00
   27     8 O     1.947095187063E+00  7.732867726540E-01 -4.135543186328E+00
   28     8 O    -1.947095187063E+00 -1.116486674856E+00  4.135543186328E+00
   29     8 O    -3.162850822651E+00  7.330104872850E-01  2.828802314827E+00
   30     8 O     3.162850822651E+00 -1.156762960225E+00 -2.828802314827E+00
   31     8 O    -5.138181732526E+00 -1.156700462525E+00  1.964011189280E+00
   32     8 O     5.138181732526E+00  7.330729849850E-01 -1.964011189280E+00
   33     8 O    -2.634968318677E+00 -1.090693462086E+00  1.005498861478E+00
   34     8 O     2.634968318677E+00  7.990799854240E-01 -1.005498861478E+00
   35     8 O    -4.709423921307E+00 -1.116451610977E+00 -6.556858075160E-01
   36     8 O     4.709423921307E+00  7.733218365330E-01  6.556858075160E-01
 WARNING **** CRYSTA **** TESTGEOM  DIRECTIVE - GEOMETRY EDITING COMPLETE
 TTTTTTTTTTTTTTTTTTTTTTTTTTTTTT END         TELAPSE        0.02 TCPU        0.02
 EEEEEEEEEE TERMINATION  DATE 31 07 2025 TIME 12:14:58.5
